This job started on
Tue Jan 22 15:10:18 CET 2019
 running on   16 total cores
 distrk:  each k-point on   16 cores,    1 groups
 distr:  one band on    8 cores,    2 groups
 using from now: INCAR     
 vasp.5.4.4.18Apr17-6-g9f103f2a35 (build Apr 17 2018 18:25:23) complex          
  
 POSCAR found :  1 types and       4 ions

 ----------------------------------------------------------------------------- 
|                                                                             |
|  ADVICE TO THIS USER RUNNING 'VASP/VAMP'   (HEAR YOUR MASTER'S VOICE ...):  |
|                                                                             |
|      You enforced a specific xc-type in the INCAR file,                     |
|      a different type was found on the POTCAR file                          |
|          I HOPE YOU KNOW, WHAT YOU ARE  DOING                               |
|                                                                             |
 ----------------------------------------------------------------------------- 

 LDA part: xc-table for Ceperly-Alder, standard interpolation
 POSCAR found :  1 types and       4 ions
 POSCAR, INCAR and KPOINTS ok, starting setup
 FFT: planning ...
 WAVECAR not read
 entering main loop
       N       E                     dE             d eps       ncg     rms          rms(c)
DAV:   1     0.429125593951E+03    0.42913E+03   -0.17148E+04 10592   0.148E+03
DAV:   2     0.449899848264E+01   -0.42463E+03   -0.41202E+03 10592   0.510E+02
DAV:   3    -0.250806154669E+02   -0.29580E+02   -0.28666E+02 14840   0.118E+02
DAV:   4    -0.260130807221E+02   -0.93247E+00   -0.92558E+00 11360   0.286E+01
DAV:   5    -0.260411793730E+02   -0.28099E-01   -0.28085E-01 13224   0.320E+00    0.771E+00
DAV:   6    -0.244425364281E+02    0.15986E+01   -0.43157E+00 13432   0.227E+01    0.198E+00
DAV:   7    -0.243376791935E+02    0.10486E+00   -0.37533E-01 16200   0.588E+00    0.594E-01
DAV:   8    -0.243254552068E+02    0.12224E-01   -0.16058E-02 10976   0.159E+00    0.101E-01
DAV:   9    -0.243251447245E+02    0.31048E-03   -0.17465E-03 14440   0.452E-01    0.240E-02
DAV:  10    -0.243251606744E+02   -0.15950E-04   -0.42984E-05 11760   0.390E-02    0.404E-03
DAV:  11    -0.243251627787E+02   -0.21042E-05   -0.15710E-06  8600   0.142E-02    0.405E-04
DAV:  12    -0.243251624850E+02    0.29371E-06   -0.28609E-07  5808   0.483E-03
   1 F= -.24325162E+02 E0= -.24323759E+02  d E =-.243252E+02
 curvature:   0.00 expect dE= 0.000E+00 dE for cont linesearch  0.000E+00
 trial: gam= 0.00000 g(F)=  0.358E-60 g(S)=  0.000E+00 ort = 0.000E+00 (trialstep = 0.100E+01)
 search vector abs. value=  0.100E-09
 reached required accuracy - stopping structural energy minimisation
 writing wavefunctions
This job finished on
Tue Jan 22 15:10:54 CET 2019
