<?xml version="1.0" encoding="ISO-8859-1"?>
<modeling>
 <generator>
  <i name="program" type="string">vasp </i>
  <i name="version" type="string">5.4.4.18Apr17-6-g9f103f2a35  </i>
  <i name="subversion" type="string">(build Apr 17 2018 18:25:23) complex            parallel </i>
  <i name="platform" type="string">LinuxIFC </i>
  <i name="date" type="string">2019 01 22 </i>
  <i name="time" type="string">15:10:21 </i>
 </generator>
 <incar>
  <i type="string" name="SYSTEM"> Pt bulk calculation</i>
  <i type="int" name="ISTART">     0</i>
  <i type="string" name="PREC">normal</i>
  <i type="string" name="ALGO"> NORMAL</i>
  <i type="int" name="ICHARG">     2</i>
  <i type="int" name="INIWAV">     1</i>
  <i type="int" name="NELMIN">    10</i>
  <i type="int" name="IBRION">     2</i>
  <i name="EDIFF">      0.00000100</i>
  <i name="EDIFFG">     -0.02000000</i>
  <i type="int" name="NSW">    10</i>
  <i name="ENCUT">    450.00000000</i>
  <i name="POTIM">      0.20000000</i>
  <i type="int" name="ISMEAR">     2</i>
  <i name="SIGMA">      0.20000000</i>
  <v type="int" name="KPOINT_BSE">    -1     0     0     0</v>
  <i type="string" name="GGA"> 91</i>
 </incar>
 <structure name="primitive_cell" >
  <crystal>
   <varray name="basis" >
    <v>       2.02500000       2.02500000       0.00000000 </v>
    <v>       2.02500000       0.00000000      -2.02500000 </v>
    <v>       0.00000000       2.02500000      -2.02500000 </v>
   </varray>
   <i name="volume">     16.60753125 </i>
   <varray name="rec_basis" >
    <v>       0.24691358       0.24691358       0.24691358 </v>
    <v>       0.24691358      -0.24691358      -0.24691358 </v>
    <v>      -0.24691358       0.24691358      -0.24691358 </v>
   </varray>
  </crystal>
  <varray name="positions" >
   <v>       0.00000000       0.00000000       0.00000000 </v>
  </varray>
 </structure>
 <varray name="primitive_index" >
  <v type="int" >        1 </v>
 </varray>
 <kpoints>
  <generation param="Monkhorst-Pack">
   <v type="int" name="divisions">      20       20       20 </v>
   <v name="usershift">      0.00000000       0.00000000       0.00000000 </v>
   <v name="genvec1">      0.05000000       0.00000000       0.00000000 </v>
   <v name="genvec2">      0.00000000       0.05000000       0.00000000 </v>
   <v name="genvec3">      0.00000000       0.00000000       0.05000000 </v>
   <v name="shift">      0.50000000       0.50000000       0.50000000 </v>
  </generation>
  <varray name="kpointlist" >
   <v>       0.02500000       0.02500000       0.02500000 </v>
   <v>       0.07500000       0.02500000       0.02500000 </v>
   <v>       0.12500000       0.02500000       0.02500000 </v>
   <v>       0.17500000       0.02500000       0.02500000 </v>
   <v>       0.22500000       0.02500000       0.02500000 </v>
   <v>       0.27500000       0.02500000       0.02500000 </v>
   <v>       0.32500000       0.02500000       0.02500000 </v>
   <v>       0.37500000       0.02500000       0.02500000 </v>
   <v>       0.42500000       0.02500000       0.02500000 </v>
   <v>       0.47500000       0.02500000       0.02500000 </v>
   <v>       0.07500000       0.07500000       0.02500000 </v>
   <v>       0.12500000       0.07500000       0.02500000 </v>
   <v>       0.17500000       0.07500000       0.02500000 </v>
   <v>       0.22500000       0.07500000       0.02500000 </v>
   <v>       0.27500000       0.07500000       0.02500000 </v>
   <v>       0.32500000       0.07500000       0.02500000 </v>
   <v>       0.37500000       0.07500000       0.02500000 </v>
   <v>       0.42500000       0.07500000       0.02500000 </v>
   <v>       0.47500000       0.07500000       0.02500000 </v>
   <v>       0.12500000       0.12500000       0.02500000 </v>
   <v>       0.17500000       0.12500000       0.02500000 </v>
   <v>       0.22500000       0.12500000       0.02500000 </v>
   <v>       0.27500000       0.12500000       0.02500000 </v>
   <v>       0.32500000       0.12500000       0.02500000 </v>
   <v>       0.37500000       0.12500000       0.02500000 </v>
   <v>       0.42500000       0.12500000       0.02500000 </v>
   <v>       0.47500000       0.12500000       0.02500000 </v>
   <v>       0.17500000       0.17500000       0.02500000 </v>
   <v>       0.22500000       0.17500000       0.02500000 </v>
   <v>       0.27500000       0.17500000       0.02500000 </v>
   <v>       0.32500000       0.17500000       0.02500000 </v>
   <v>       0.37500000       0.17500000       0.02500000 </v>
   <v>       0.42500000       0.17500000       0.02500000 </v>
   <v>       0.47500000       0.17500000       0.02500000 </v>
   <v>       0.22500000       0.22500000       0.02500000 </v>
   <v>       0.27500000       0.22500000       0.02500000 </v>
   <v>       0.32500000       0.22500000       0.02500000 </v>
   <v>       0.37500000       0.22500000       0.02500000 </v>
   <v>       0.42500000       0.22500000       0.02500000 </v>
   <v>       0.47500000       0.22500000       0.02500000 </v>
   <v>       0.27500000       0.27500000       0.02500000 </v>
   <v>       0.32500000       0.27500000       0.02500000 </v>
   <v>       0.37500000       0.27500000       0.02500000 </v>
   <v>       0.42500000       0.27500000       0.02500000 </v>
   <v>       0.47500000       0.27500000       0.02500000 </v>
   <v>       0.32500000       0.32500000       0.02500000 </v>
   <v>       0.37500000       0.32500000       0.02500000 </v>
   <v>       0.42500000       0.32500000       0.02500000 </v>
   <v>       0.47500000       0.32500000       0.02500000 </v>
   <v>       0.37500000       0.37500000       0.02500000 </v>
   <v>       0.42500000       0.37500000       0.02500000 </v>
   <v>       0.47500000       0.37500000       0.02500000 </v>
   <v>       0.42500000       0.42500000       0.02500000 </v>
   <v>       0.47500000       0.42500000       0.02500000 </v>
   <v>       0.47500000       0.47500000       0.02500000 </v>
   <v>       0.07500000       0.07500000       0.07500000 </v>
   <v>       0.12500000       0.07500000       0.07500000 </v>
   <v>       0.17500000       0.07500000       0.07500000 </v>
   <v>       0.22500000       0.07500000       0.07500000 </v>
   <v>       0.27500000       0.07500000       0.07500000 </v>
   <v>       0.32500000       0.07500000       0.07500000 </v>
   <v>       0.37500000       0.07500000       0.07500000 </v>
   <v>       0.42500000       0.07500000       0.07500000 </v>
   <v>       0.47500000       0.07500000       0.07500000 </v>
   <v>       0.12500000       0.12500000       0.07500000 </v>
   <v>       0.17500000       0.12500000       0.07500000 </v>
   <v>       0.22500000       0.12500000       0.07500000 </v>
   <v>       0.27500000       0.12500000       0.07500000 </v>
   <v>       0.32500000       0.12500000       0.07500000 </v>
   <v>       0.37500000       0.12500000       0.07500000 </v>
   <v>       0.42500000       0.12500000       0.07500000 </v>
   <v>       0.47500000       0.12500000       0.07500000 </v>
   <v>       0.17500000       0.17500000       0.07500000 </v>
   <v>       0.22500000       0.17500000       0.07500000 </v>
   <v>       0.27500000       0.17500000       0.07500000 </v>
   <v>       0.32500000       0.17500000       0.07500000 </v>
   <v>       0.37500000       0.17500000       0.07500000 </v>
   <v>       0.42500000       0.17500000       0.07500000 </v>
   <v>       0.47500000       0.17500000       0.07500000 </v>
   <v>       0.22500000       0.22500000       0.07500000 </v>
   <v>       0.27500000       0.22500000       0.07500000 </v>
   <v>       0.32500000       0.22500000       0.07500000 </v>
   <v>       0.37500000       0.22500000       0.07500000 </v>
   <v>       0.42500000       0.22500000       0.07500000 </v>
   <v>       0.47500000       0.22500000       0.07500000 </v>
   <v>       0.27500000       0.27500000       0.07500000 </v>
   <v>       0.32500000       0.27500000       0.07500000 </v>
   <v>       0.37500000       0.27500000       0.07500000 </v>
   <v>       0.42500000       0.27500000       0.07500000 </v>
   <v>       0.47500000       0.27500000       0.07500000 </v>
   <v>       0.32500000       0.32500000       0.07500000 </v>
   <v>       0.37500000       0.32500000       0.07500000 </v>
   <v>       0.42500000       0.32500000       0.07500000 </v>
   <v>       0.47500000       0.32500000       0.07500000 </v>
   <v>       0.37500000       0.37500000       0.07500000 </v>
   <v>       0.42500000       0.37500000       0.07500000 </v>
   <v>       0.47500000       0.37500000       0.07500000 </v>
   <v>       0.42500000       0.42500000       0.07500000 </v>
   <v>       0.47500000       0.42500000       0.07500000 </v>
   <v>       0.47500000       0.47500000       0.07500000 </v>
   <v>       0.12500000       0.12500000       0.12500000 </v>
   <v>       0.17500000       0.12500000       0.12500000 </v>
   <v>       0.22500000       0.12500000       0.12500000 </v>
   <v>       0.27500000       0.12500000       0.12500000 </v>
   <v>       0.32500000       0.12500000       0.12500000 </v>
   <v>       0.37500000       0.12500000       0.12500000 </v>
   <v>       0.42500000       0.12500000       0.12500000 </v>
   <v>       0.47500000       0.12500000       0.12500000 </v>
   <v>       0.17500000       0.17500000       0.12500000 </v>
   <v>       0.22500000       0.17500000       0.12500000 </v>
   <v>       0.27500000       0.17500000       0.12500000 </v>
   <v>       0.32500000       0.17500000       0.12500000 </v>
   <v>       0.37500000       0.17500000       0.12500000 </v>
   <v>       0.42500000       0.17500000       0.12500000 </v>
   <v>       0.47500000       0.17500000       0.12500000 </v>
   <v>       0.22500000       0.22500000       0.12500000 </v>
   <v>       0.27500000       0.22500000       0.12500000 </v>
   <v>       0.32500000       0.22500000       0.12500000 </v>
   <v>       0.37500000       0.22500000       0.12500000 </v>
   <v>       0.42500000       0.22500000       0.12500000 </v>
   <v>       0.47500000       0.22500000       0.12500000 </v>
   <v>       0.27500000       0.27500000       0.12500000 </v>
   <v>       0.32500000       0.27500000       0.12500000 </v>
   <v>       0.37500000       0.27500000       0.12500000 </v>
   <v>       0.42500000       0.27500000       0.12500000 </v>
   <v>       0.47500000       0.27500000       0.12500000 </v>
   <v>       0.32500000       0.32500000       0.12500000 </v>
   <v>       0.37500000       0.32500000       0.12500000 </v>
   <v>       0.42500000       0.32500000       0.12500000 </v>
   <v>       0.47500000       0.32500000       0.12500000 </v>
   <v>       0.37500000       0.37500000       0.12500000 </v>
   <v>       0.42500000       0.37500000       0.12500000 </v>
   <v>       0.47500000       0.37500000       0.12500000 </v>
   <v>       0.42500000       0.42500000       0.12500000 </v>
   <v>       0.47500000       0.42500000       0.12500000 </v>
   <v>       0.47500000       0.47500000       0.12500000 </v>
   <v>       0.17500000       0.17500000       0.17500000 </v>
   <v>       0.22500000       0.17500000       0.17500000 </v>
   <v>       0.27500000       0.17500000       0.17500000 </v>
   <v>       0.32500000       0.17500000       0.17500000 </v>
   <v>       0.37500000       0.17500000       0.17500000 </v>
   <v>       0.42500000       0.17500000       0.17500000 </v>
   <v>       0.47500000       0.17500000       0.17500000 </v>
   <v>       0.22500000       0.22500000       0.17500000 </v>
   <v>       0.27500000       0.22500000       0.17500000 </v>
   <v>       0.32500000       0.22500000       0.17500000 </v>
   <v>       0.37500000       0.22500000       0.17500000 </v>
   <v>       0.42500000       0.22500000       0.17500000 </v>
   <v>       0.47500000       0.22500000       0.17500000 </v>
   <v>       0.27500000       0.27500000       0.17500000 </v>
   <v>       0.32500000       0.27500000       0.17500000 </v>
   <v>       0.37500000       0.27500000       0.17500000 </v>
   <v>       0.42500000       0.27500000       0.17500000 </v>
   <v>       0.47500000       0.27500000       0.17500000 </v>
   <v>       0.32500000       0.32500000       0.17500000 </v>
   <v>       0.37500000       0.32500000       0.17500000 </v>
   <v>       0.42500000       0.32500000       0.17500000 </v>
   <v>       0.47500000       0.32500000       0.17500000 </v>
   <v>       0.37500000       0.37500000       0.17500000 </v>
   <v>       0.42500000       0.37500000       0.17500000 </v>
   <v>       0.47500000       0.37500000       0.17500000 </v>
   <v>       0.42500000       0.42500000       0.17500000 </v>
   <v>       0.47500000       0.42500000       0.17500000 </v>
   <v>       0.47500000       0.47500000       0.17500000 </v>
   <v>       0.22500000       0.22500000       0.22500000 </v>
   <v>       0.27500000       0.22500000       0.22500000 </v>
   <v>       0.32500000       0.22500000       0.22500000 </v>
   <v>       0.37500000       0.22500000       0.22500000 </v>
   <v>       0.42500000       0.22500000       0.22500000 </v>
   <v>       0.47500000       0.22500000       0.22500000 </v>
   <v>       0.27500000       0.27500000       0.22500000 </v>
   <v>       0.32500000       0.27500000       0.22500000 </v>
   <v>       0.37500000       0.27500000       0.22500000 </v>
   <v>       0.42500000       0.27500000       0.22500000 </v>
   <v>       0.47500000       0.27500000       0.22500000 </v>
   <v>       0.32500000       0.32500000       0.22500000 </v>
   <v>       0.37500000       0.32500000       0.22500000 </v>
   <v>       0.42500000       0.32500000       0.22500000 </v>
   <v>       0.47500000       0.32500000       0.22500000 </v>
   <v>       0.37500000       0.37500000       0.22500000 </v>
   <v>       0.42500000       0.37500000       0.22500000 </v>
   <v>       0.47500000       0.37500000       0.22500000 </v>
   <v>       0.42500000       0.42500000       0.22500000 </v>
   <v>       0.47500000       0.42500000       0.22500000 </v>
   <v>       0.47500000       0.47500000       0.22500000 </v>
   <v>       0.27500000       0.27500000       0.27500000 </v>
   <v>       0.32500000       0.27500000       0.27500000 </v>
   <v>       0.37500000       0.27500000       0.27500000 </v>
   <v>       0.42500000       0.27500000       0.27500000 </v>
   <v>       0.47500000       0.27500000       0.27500000 </v>
   <v>       0.32500000       0.32500000       0.27500000 </v>
   <v>       0.37500000       0.32500000       0.27500000 </v>
   <v>       0.42500000       0.32500000       0.27500000 </v>
   <v>       0.47500000       0.32500000       0.27500000 </v>
   <v>       0.37500000       0.37500000       0.27500000 </v>
   <v>       0.42500000       0.37500000       0.27500000 </v>
   <v>       0.47500000       0.37500000       0.27500000 </v>
   <v>       0.42500000       0.42500000       0.27500000 </v>
   <v>       0.47500000       0.42500000       0.27500000 </v>
   <v>       0.47500000       0.47500000       0.27500000 </v>
   <v>       0.32500000       0.32500000       0.32500000 </v>
   <v>       0.37500000       0.32500000       0.32500000 </v>
   <v>       0.42500000       0.32500000       0.32500000 </v>
   <v>       0.47500000       0.32500000       0.32500000 </v>
   <v>       0.37500000       0.37500000       0.32500000 </v>
   <v>       0.42500000       0.37500000       0.32500000 </v>
   <v>       0.47500000       0.37500000       0.32500000 </v>
   <v>       0.42500000       0.42500000       0.32500000 </v>
   <v>       0.47500000       0.42500000       0.32500000 </v>
   <v>       0.47500000       0.47500000       0.32500000 </v>
   <v>       0.37500000       0.37500000       0.37500000 </v>
   <v>       0.42500000       0.37500000       0.37500000 </v>
   <v>       0.47500000       0.37500000       0.37500000 </v>
   <v>       0.42500000       0.42500000       0.37500000 </v>
   <v>       0.47500000       0.42500000       0.37500000 </v>
   <v>       0.47500000       0.47500000       0.37500000 </v>
   <v>       0.42500000       0.42500000       0.42500000 </v>
   <v>       0.47500000       0.42500000       0.42500000 </v>
   <v>       0.47500000       0.47500000       0.42500000 </v>
   <v>       0.47500000       0.47500000       0.47500000 </v>
  </varray>
  <varray name="weights" >
   <v>       0.00100000 </v>
   <v>       0.00300000 </v>
   <v>       0.00300000 </v>
   <v>       0.00300000 </v>
   <v>       0.00300000 </v>
   <v>       0.00300000 </v>
   <v>       0.00300000 </v>
   <v>       0.00300000 </v>
   <v>       0.00300000 </v>
   <v>       0.00300000 </v>
   <v>       0.00300000 </v>
   <v>       0.00600000 </v>
   <v>       0.00600000 </v>
   <v>       0.00600000 </v>
   <v>       0.00600000 </v>
   <v>       0.00600000 </v>
   <v>       0.00600000 </v>
   <v>       0.00600000 </v>
   <v>       0.00600000 </v>
   <v>       0.00300000 </v>
   <v>       0.00600000 </v>
   <v>       0.00600000 </v>
   <v>       0.00600000 </v>
   <v>       0.00600000 </v>
   <v>       0.00600000 </v>
   <v>       0.00600000 </v>
   <v>       0.00600000 </v>
   <v>       0.00300000 </v>
   <v>       0.00600000 </v>
   <v>       0.00600000 </v>
   <v>       0.00600000 </v>
   <v>       0.00600000 </v>
   <v>       0.00600000 </v>
   <v>       0.00600000 </v>
   <v>       0.00300000 </v>
   <v>       0.00600000 </v>
   <v>       0.00600000 </v>
   <v>       0.00600000 </v>
   <v>       0.00600000 </v>
   <v>       0.00600000 </v>
   <v>       0.00300000 </v>
   <v>       0.00600000 </v>
   <v>       0.00600000 </v>
   <v>       0.00600000 </v>
   <v>       0.00600000 </v>
   <v>       0.00300000 </v>
   <v>       0.00600000 </v>
   <v>       0.00600000 </v>
   <v>       0.00600000 </v>
   <v>       0.00300000 </v>
   <v>       0.00600000 </v>
   <v>       0.00600000 </v>
   <v>       0.00300000 </v>
   <v>       0.00600000 </v>
   <v>       0.00300000 </v>
   <v>       0.00100000 </v>
   <v>       0.00300000 </v>
   <v>       0.00300000 </v>
   <v>       0.00300000 </v>
   <v>       0.00300000 </v>
   <v>       0.00300000 </v>
   <v>       0.00300000 </v>
   <v>       0.00300000 </v>
   <v>       0.00300000 </v>
   <v>       0.00300000 </v>
   <v>       0.00600000 </v>
   <v>       0.00600000 </v>
   <v>       0.00600000 </v>
   <v>       0.00600000 </v>
   <v>       0.00600000 </v>
   <v>       0.00600000 </v>
   <v>       0.00600000 </v>
   <v>       0.00300000 </v>
   <v>       0.00600000 </v>
   <v>       0.00600000 </v>
   <v>       0.00600000 </v>
   <v>       0.00600000 </v>
   <v>       0.00600000 </v>
   <v>       0.00600000 </v>
   <v>       0.00300000 </v>
   <v>       0.00600000 </v>
   <v>       0.00600000 </v>
   <v>       0.00600000 </v>
   <v>       0.00600000 </v>
   <v>       0.00600000 </v>
   <v>       0.00300000 </v>
   <v>       0.00600000 </v>
   <v>       0.00600000 </v>
   <v>       0.00600000 </v>
   <v>       0.00600000 </v>
   <v>       0.00300000 </v>
   <v>       0.00600000 </v>
   <v>       0.00600000 </v>
   <v>       0.00600000 </v>
   <v>       0.00300000 </v>
   <v>       0.00600000 </v>
   <v>       0.00600000 </v>
   <v>       0.00300000 </v>
   <v>       0.00600000 </v>
   <v>       0.00300000 </v>
   <v>       0.00100000 </v>
   <v>       0.00300000 </v>
   <v>       0.00300000 </v>
   <v>       0.00300000 </v>
   <v>       0.00300000 </v>
   <v>       0.00300000 </v>
   <v>       0.00300000 </v>
   <v>       0.00300000 </v>
   <v>       0.00300000 </v>
   <v>       0.00600000 </v>
   <v>       0.00600000 </v>
   <v>       0.00600000 </v>
   <v>       0.00600000 </v>
   <v>       0.00600000 </v>
   <v>       0.00600000 </v>
   <v>       0.00300000 </v>
   <v>       0.00600000 </v>
   <v>       0.00600000 </v>
   <v>       0.00600000 </v>
   <v>       0.00600000 </v>
   <v>       0.00600000 </v>
   <v>       0.00300000 </v>
   <v>       0.00600000 </v>
   <v>       0.00600000 </v>
   <v>       0.00600000 </v>
   <v>       0.00600000 </v>
   <v>       0.00300000 </v>
   <v>       0.00600000 </v>
   <v>       0.00600000 </v>
   <v>       0.00600000 </v>
   <v>       0.00300000 </v>
   <v>       0.00600000 </v>
   <v>       0.00600000 </v>
   <v>       0.00300000 </v>
   <v>       0.00600000 </v>
   <v>       0.00300000 </v>
   <v>       0.00100000 </v>
   <v>       0.00300000 </v>
   <v>       0.00300000 </v>
   <v>       0.00300000 </v>
   <v>       0.00300000 </v>
   <v>       0.00300000 </v>
   <v>       0.00300000 </v>
   <v>       0.00300000 </v>
   <v>       0.00600000 </v>
   <v>       0.00600000 </v>
   <v>       0.00600000 </v>
   <v>       0.00600000 </v>
   <v>       0.00600000 </v>
   <v>       0.00300000 </v>
   <v>       0.00600000 </v>
   <v>       0.00600000 </v>
   <v>       0.00600000 </v>
   <v>       0.00600000 </v>
   <v>       0.00300000 </v>
   <v>       0.00600000 </v>
   <v>       0.00600000 </v>
   <v>       0.00600000 </v>
   <v>       0.00300000 </v>
   <v>       0.00600000 </v>
   <v>       0.00600000 </v>
   <v>       0.00300000 </v>
   <v>       0.00600000 </v>
   <v>       0.00300000 </v>
   <v>       0.00100000 </v>
   <v>       0.00300000 </v>
   <v>       0.00300000 </v>
   <v>       0.00300000 </v>
   <v>       0.00300000 </v>
   <v>       0.00300000 </v>
   <v>       0.00300000 </v>
   <v>       0.00600000 </v>
   <v>       0.00600000 </v>
   <v>       0.00600000 </v>
   <v>       0.00600000 </v>
   <v>       0.00300000 </v>
   <v>       0.00600000 </v>
   <v>       0.00600000 </v>
   <v>       0.00600000 </v>
   <v>       0.00300000 </v>
   <v>       0.00600000 </v>
   <v>       0.00600000 </v>
   <v>       0.00300000 </v>
   <v>       0.00600000 </v>
   <v>       0.00300000 </v>
   <v>       0.00100000 </v>
   <v>       0.00300000 </v>
   <v>       0.00300000 </v>
   <v>       0.00300000 </v>
   <v>       0.00300000 </v>
   <v>       0.00300000 </v>
   <v>       0.00600000 </v>
   <v>       0.00600000 </v>
   <v>       0.00600000 </v>
   <v>       0.00300000 </v>
   <v>       0.00600000 </v>
   <v>       0.00600000 </v>
   <v>       0.00300000 </v>
   <v>       0.00600000 </v>
   <v>       0.00300000 </v>
   <v>       0.00100000 </v>
   <v>       0.00300000 </v>
   <v>       0.00300000 </v>
   <v>       0.00300000 </v>
   <v>       0.00300000 </v>
   <v>       0.00600000 </v>
   <v>       0.00600000 </v>
   <v>       0.00300000 </v>
   <v>       0.00600000 </v>
   <v>       0.00300000 </v>
   <v>       0.00100000 </v>
   <v>       0.00300000 </v>
   <v>       0.00300000 </v>
   <v>       0.00300000 </v>
   <v>       0.00600000 </v>
   <v>       0.00300000 </v>
   <v>       0.00100000 </v>
   <v>       0.00300000 </v>
   <v>       0.00300000 </v>
   <v>       0.00100000 </v>
  </varray>
 </kpoints>
 <parameters>
  <separator name="general" >
   <i type="string" name="SYSTEM">Pt bulk calculation</i>
   <i type="logical" name="LCOMPAT"> F  </i>
  </separator>
  <separator name="electronic" >
   <i type="string" name="PREC">normal</i>
   <i name="ENMAX">    450.00000000</i>
   <i name="ENAUG">    358.96600000</i>
   <i name="EDIFF">      0.00000100</i>
   <i type="int" name="IALGO">    38</i>
   <i type="int" name="IWAVPR">    11</i>
   <i type="int" name="NBANDS">    24</i>
   <i name="NELECT">     40.00000000</i>
   <i type="int" name="TURBO">     0</i>
   <i type="int" name="IRESTART">     0</i>
   <i type="int" name="NREBOOT">     0</i>
   <i type="int" name="NMIN">     0</i>
   <i name="EREF">      0.00000000</i>
   <separator name="electronic smearing" >
    <i type="int" name="ISMEAR">     2</i>
    <i name="SIGMA">      0.20000000</i>
    <i name="KSPACING">      0.50000000</i>
    <i type="logical" name="KGAMMA"> T  </i>
   </separator>
   <separator name="electronic projectors" >
    <i type="logical" name="LREAL"> F  </i>
    <v name="ROPT">      0.00000000</v>
    <i type="int" name="LMAXPAW">  -100</i>
    <i type="int" name="LMAXMIX">     2</i>
    <i type="logical" name="NLSPLINE"> F  </i>
   </separator>
   <separator name="electronic startup" >
    <i type="int" name="ISTART">     0</i>
    <i type="int" name="ICHARG">     2</i>
    <i type="int" name="INIWAV">     1</i>
   </separator>
   <separator name="electronic spin" >
    <i type="int" name="ISPIN">     1</i>
    <i type="logical" name="LNONCOLLINEAR"> F  </i>
    <v name="MAGMOM">      1.00000000      1.00000000      1.00000000      1.00000000</v>
    <i name="NUPDOWN">     -1.00000000</i>
    <i type="logical" name="LSORBIT"> F  </i>
    <v name="SAXIS">      0.00000000      0.00000000      1.00000000</v>
    <i type="logical" name="LSPIRAL"> F  </i>
    <v name="QSPIRAL">      0.00000000      0.00000000      0.00000000</v>
    <i type="logical" name="LZEROZ"> F  </i>
   </separator>
   <separator name="electronic exchange-correlation" >
    <i type="logical" name="LASPH"> F  </i>
    <i type="logical" name="LMETAGGA"> F  </i>
   </separator>
   <separator name="electronic convergence" >
    <i type="int" name="NELM">    60</i>
    <i type="int" name="NELMDL">    -5</i>
    <i type="int" name="NELMIN">    10</i>
    <i name="ENINI">    450.00000000</i>
    <separator name="electronic convergence detail" >
     <i type="logical" name="LDIAG"> T  </i>
     <i type="logical" name="LSUBROT"> F  </i>
     <i name="WEIMIN">      0.00100000</i>
     <i name="EBREAK">      0.00000001</i>
     <i name="DEPER">      0.30000000</i>
     <i type="int" name="NRMM">     4</i>
     <i name="TIME">      0.40000000</i>
    </separator>
   </separator>
   <separator name="electronic mixer" >
    <i name="AMIX">      0.40000000</i>
    <i name="BMIX">      1.00000000</i>
    <i name="AMIN">      0.10000000</i>
    <i name="AMIX_MAG">      1.60000000</i>
    <i name="BMIX_MAG">      1.00000000</i>
    <separator name="electronic mixer details" >
     <i type="int" name="IMIX">     4</i>
     <i type="logical" name="MIXFIRST"> F  </i>
     <i type="int" name="MAXMIX">   -45</i>
     <i name="WC">    100.00000000</i>
     <i type="int" name="INIMIX">     1</i>
     <i type="int" name="MIXPRE">     1</i>
     <i type="int" name="MREMOVE">     5</i>
    </separator>
   </separator>
   <separator name="electronic dipolcorrection" >
    <i type="logical" name="LDIPOL"> F  </i>
    <i type="logical" name="LMONO"> F  </i>
    <i type="int" name="IDIPOL">     0</i>
    <i name="EPSILON">      1.00000000</i>
    <v name="DIPOL">   -100.00000000   -100.00000000   -100.00000000</v>
    <i name="EFIELD">      0.00000000</i>
   </separator>
  </separator>
  <separator name="grids" >
   <i type="int" name="NGX">    24</i>
   <i type="int" name="NGY">    24</i>
   <i type="int" name="NGZ">    24</i>
   <i type="int" name="NGXF">    48</i>
   <i type="int" name="NGYF">    48</i>
   <i type="int" name="NGZF">    48</i>
   <i type="logical" name="ADDGRID"> F  </i>
  </separator>
  <separator name="ionic" >
   <i type="int" name="NSW">    10</i>
   <i type="int" name="IBRION">     2</i>
   <i type="int" name="MDALGO">     0</i>
   <i type="int" name="ISIF">     2</i>
   <i name="PSTRESS">      0.00000000</i>
   <i name="EDIFFG">     -0.02000000</i>
   <i type="int" name="NFREE">     1</i>
   <i name="POTIM">      0.20000000</i>
   <i name="SMASS">     -3.00000000</i>
   <i name="SCALEE">      1.00000000</i>
  </separator>
  <separator name="ionic md" >
   <i name="TEBEG">      0.00010000</i>
   <i name="TEEND">      0.00010000</i>
   <i type="int" name="NBLOCK">     1</i>
   <i type="int" name="KBLOCK">    10</i>
   <i type="int" name="NPACO">   256</i>
   <i name="APACO">     16.00000000</i>
  </separator>
  <separator name="symmetry" >
   <i type="int" name="ISYM">     2</i>
   <i name="SYMPREC">      0.00001000</i>
  </separator>
  <separator name="dos" >
   <i type="int" name="LORBIT">     0</i>
   <v name="RWIGS">     -1.00000000</v>
   <i type="int" name="NEDOS">   301</i>
   <i name="EMIN">     10.00000000</i>
   <i name="EMAX">    -10.00000000</i>
   <i name="EFERMI">      0.00000000</i>
  </separator>
  <separator name="writing" >
   <i type="int" name="NWRITE">     2</i>
   <i type="logical" name="LWAVE"> T  </i>
   <i type="logical" name="LDOWNSAMPLE"> F  </i>
   <i type="logical" name="LCHARG"> T  </i>
   <i type="logical" name="LPARD"> F  </i>
   <i type="logical" name="LVTOT"> F  </i>
   <i type="logical" name="LVHAR"> F  </i>
   <i type="logical" name="LELF"> F  </i>
   <i type="logical" name="LOPTICS"> F  </i>
   <v name="STM">      0.00000000      0.00000000      0.00000000      0.00000000      0.00000000      0.00000000      0.00000000</v>
  </separator>
  <separator name="performance" >
   <i type="int" name="NPAR">     2</i>
   <i type="int" name="NSIM">     4</i>
   <i type="int" name="NBLK">    -1</i>
   <i type="logical" name="LPLANE"> T  </i>
   <i type="logical" name="LSCALAPACK"> F  </i>
   <i type="logical" name="LSCAAWARE"> F  </i>
   <i type="logical" name="LSCALU"> F  </i>
   <i type="logical" name="LASYNC"> F  </i>
   <i type="logical" name="LORBITALREAL"> F  </i>
  </separator>
  <separator name="miscellaneous" >
   <i type="int" name="IDIOT">     3</i>
   <i type="int" name="ISPECIAL">     0</i>
   <i type="logical" name="LMUSIC"> F  </i>
   <v name="POMASS">    195.08000000</v>
   <v name="DARWINR">      0.00000000</v>
   <v name="DARWINV">      1.00000000</v>
   <i type="logical" name="LCORR"> T  </i>
  </separator>
  <i type="logical" name="GGA_COMPAT"> T  </i>
  <i type="logical" name="LBERRY"> F  </i>
  <i type="int" name="ICORELEVEL">     0</i>
  <i type="logical" name="LDAU"> F  </i>
  <i type="int" name="I_CONSTRAINED_M">     0</i>
  <separator name="electronic exchange-correlation" >
   <i type="string" name="GGA">91</i>
   <i type="int" name="VOSKOWN">     0</i>
   <i type="logical" name="LHFCALC"> F  </i>
   <i type="string" name="PRECFOCK"></i>
   <i type="logical" name="LSYMGRAD"> F  </i>
   <i type="logical" name="LHFONE"> F  </i>
   <i type="logical" name="LRHFCALC"> F  </i>
   <i type="logical" name="LTHOMAS"> F  </i>
   <i type="logical" name="LMODELHF"> F  </i>
   <i name="ENCUT4O">     -1.00000000</i>
   <i type="int" name="EXXOEP">     0</i>
   <i type="int" name="FOURORBIT">     0</i>
   <i name="AEXX">      0.00000000</i>
   <i name="HFALPHA">      0.00000000</i>
   <i name="MCALPHA">      0.00000000</i>
   <i name="ALDAX">      1.00000000</i>
   <i name="AGGAX">      1.00000000</i>
   <i name="ALDAC">      1.00000000</i>
   <i name="AGGAC">      1.00000000</i>
   <i type="int" name="NKREDX">     1</i>
   <i type="int" name="NKREDY">     1</i>
   <i type="int" name="NKREDZ">     1</i>
   <i type="logical" name="SHIFTRED"> F  </i>
   <i type="logical" name="ODDONLY"> F  </i>
   <i type="logical" name="EVENONLY"> F  </i>
   <i type="int" name="LMAXFOCK">     0</i>
   <i type="int" name="NMAXFOCKAE">     0</i>
   <i type="logical" name="LFOCKAEDFT"> F  </i>
   <i name="HFSCREEN">      0.00000000</i>
   <i name="HFSCREENC">      0.00000000</i>
   <i type="int" name="NBANDSGWLOW">     0</i>
  </separator>
  <separator name="vdW DFT" >
   <i type="logical" name="LUSE_VDW"> F  </i>
   <i name="Zab_VDW">     -0.84910000</i>
   <i name="PARAM1">      0.12340000</i>
   <i name="PARAM2">      1.00000000</i>
   <i name="PARAM3">      0.00000000</i>
  </separator>
  <separator name="model GW" >
   <i type="int" name="MODEL_GW">     0</i>
   <i name="MODEL_EPS0">      9.96451875</i>
   <i name="MODEL_ALPHA">      1.00000000</i>
  </separator>
  <separator name="linear response parameters" >
   <i type="logical" name="LEPSILON"> F  </i>
   <i type="logical" name="LRPA"> F  </i>
   <i type="logical" name="LNABLA"> F  </i>
   <i type="logical" name="LVEL"> F  </i>
   <i type="int" name="KINTER">     0</i>
   <i name="CSHIFT">      0.10000000</i>
   <i name="OMEGAMAX">     -1.00000000</i>
   <i name="DEG_THRESHOLD">      0.00200000</i>
   <i name="RTIME">     -0.10000000</i>
   <i name="WPLASMAI">      0.00000000</i>
   <v name="DFIELD">      0.00000000      0.00000000      0.00000000</v>
   <v name="WPLASMA">      0.00000000      0.00000000      0.00000000      0.00000000      0.00000000      0.00000000      0.00000000      0.00000000      0.00000000</v>
  </separator>
  <separator name="orbital magnetization" >
   <i type="logical" name="NUCIND"> F  </i>
   <v name="MAGPOS">      0.00000000      0.00000000      0.00000000</v>
   <i type="logical" name="LNICSALL"> T  </i>
   <i type="logical" name="ORBITALMAG"> F  </i>
   <i type="logical" name="LMAGBLOCH"> F  </i>
   <i type="logical" name="LCHIMAG"> F  </i>
   <i type="logical" name="LGAUGE"> T  </i>
   <i type="int" name="MAGATOM">     0</i>
   <v name="MAGDIPOL">      0.00000000      0.00000000      0.00000000</v>
   <v name="AVECCONST">      0.00000000      0.00000000      0.00000000</v>
  </separator>
  <separator name="response functions" >
   <i type="logical" name="LADDER"> F  </i>
   <i type="logical" name="LRPAFORCE"> F  </i>
   <i type="logical" name="LFXC"> F  </i>
   <i type="logical" name="LHARTREE"> T  </i>
   <i type="int" name="IBSE">     0</i>
   <v type="int" name="KPOINT">    -1     0     0     0</v>
   <i type="logical" name="LTCTE"> F  </i>
   <i type="logical" name="LTETE"> F  </i>
   <i type="logical" name="LTRIPLET"> F  </i>
   <i type="logical" name="LFXCEPS"> F  </i>
   <i type="logical" name="LFXHEG"> F  </i>
   <i type="int" name="NATURALO">     2</i>
   <i type="logical" name="L2ORDER"> F  </i>
   <i type="logical" name="LMP2LT"> F  </i>
   <i type="logical" name="LUSEW"> F  </i>
   <i name="ENCUTGW">     -2.00000000</i>
   <i name="ENCUTGWSOFT">     -2.00000000</i>
   <i name="ENCUTLF">     -1.00000000</i>
   <i type="int" name="LMAXMP2">    -1</i>
   <i name="SCISSOR">      0.00000000</i>
   <i type="int" name="NOMEGA">     0</i>
   <i type="int" name="NOMEGAR">     0</i>
   <i type="int" name="NBANDSGW">    -1</i>
   <i type="int" name="NBANDSO">    -1</i>
   <i type="int" name="NBANDSV">    -1</i>
   <i type="int" name="NELM">     1</i>
   <i type="int" name="NELMHF">     1</i>
   <i type="int" name="DIM">     3</i>
   <i type="int" name="ANTIRES">     0</i>
   <i name="OMEGAMAX">    -30.00000000</i>
   <i name="OMEGAMIN">    -30.00000000</i>
   <i name="OMEGATL">   -200.00000000</i>
   <i type="int" name="OMEGAGRID">   140</i>
   <i name="CSHIFT">     -0.10000000</i>
   <i type="logical" name="SELFENERGY"> F  </i>
   <i type="logical" name="LSPECTRAL"> F  </i>
   <i type="logical" name="LSPECTRALGW"> F  </i>
   <i type="logical" name="LSINGLES"> F  </i>
   <i type="logical" name="LFERMIGW"> F  </i>
   <i type="logical" name="ODDONLYGW"> F  </i>
   <i type="logical" name="EVENONLYGW"> F  </i>
   <i type="int" name="NKREDLFX">     1</i>
   <i type="int" name="NKREDLFY">     1</i>
   <i type="int" name="NKREDLFZ">     1</i>
   <i type="int" name="MAXMEM">  2800</i>
   <i type="int" name="TELESCOPE">     0</i>
   <i type="int" name="TAUPAR">     1</i>
   <i type="int" name="OMEGAPAR">    -1</i>
   <i name="LAMBDA">      1.00000000</i>
  </separator>
  <separator name="External order field" >
   <i name="OFIELD_KAPPA">      0.00000000</i>
   <v name="OFIELD_K">      0.00000000      0.00000000      0.00000000</v>
   <i name="OFIELD_Q6_NEAR">      0.00000000</i>
   <i name="OFIELD_Q6_FAR">      0.00000000</i>
   <i name="OFIELD_A">      0.00000000</i>
  </separator>
 </parameters>
 <atominfo>
  <atoms>       4 </atoms>
  <types>       1 </types>
  <array name="atoms" >
   <dimension dim="1">ion</dimension>
   <field type="string">element</field>
   <field type="int">atomtype</field>
   <set>
    <rc><c>Pt</c><c>   1</c></rc>
    <rc><c>Pt</c><c>   1</c></rc>
    <rc><c>Pt</c><c>   1</c></rc>
    <rc><c>Pt</c><c>   1</c></rc>
   </set>
  </array>
  <array name="atomtypes" >
   <dimension dim="1">type</dimension>
   <field type="int">atomspertype</field>
   <field type="string">element</field>
   <field>mass</field>
   <field>valence</field>
   <field type="string">pseudopotential</field>
   <set>
    <rc><c>   4</c><c>Pt</c><c>    195.08000000</c><c>     10.00000000</c><c> PAW_PBE Pt 05Jan2001                   </c></rc>
   </set>
  </array>
 </atominfo>
 <structure name="initialpos" >
  <crystal>
   <varray name="basis" >
    <v>       4.05000000       0.00000000       0.00000000 </v>
    <v>       0.00000000       4.05000000       0.00000000 </v>
    <v>       0.00000000       0.00000000       4.05000000 </v>
   </varray>
   <i name="volume">     66.43012500 </i>
   <varray name="rec_basis" >
    <v>       0.24691358       0.00000000       0.00000000 </v>
    <v>       0.00000000       0.24691358       0.00000000 </v>
    <v>       0.00000000       0.00000000       0.24691358 </v>
   </varray>
  </crystal>
  <varray name="positions" >
   <v>       0.00000000       0.00000000       0.00000000 </v>
   <v>       0.00000000       0.50000000       0.50000000 </v>
   <v>       0.50000000       0.00000000       0.50000000 </v>
   <v>       0.50000000       0.50000000       0.00000000 </v>
  </varray>
 </structure>
 <calculation>
  <scstep>
   <time name="dav">    2.02    2.02</time>
   <time name="total">    2.04    2.10</time>
   <energy>
    <i name="alphaZ">    350.43204871 </i>
    <i name="ewald">  -3260.29821023 </i>
    <i name="hartreedc">   -320.95807819 </i>
    <i name="XCdc">     12.75326604 </i>
    <i name="pawpsdc">   2293.79710215 </i>
    <i name="pawaedc">  -2181.03440391 </i>
    <i name="eentropy">      0.00125715 </i>
    <i name="bandstr">    618.89446173 </i>
    <i name="atom">   2915.53815049 </i>
    <i name="e_fr_energy">    429.12559395 </i>
    <i name="e_wo_entrp">    429.12433680 </i>
    <i name="e_0_energy">    429.12527966 </i>
   </energy>
  </scstep>
  <scstep>
   <time name="dav">    2.01    2.01</time>
   <time name="total">    2.02    2.02</time>
   <energy>
    <i name="e_fr_energy">      4.49899848 </i>
    <i name="e_wo_entrp">      4.49869022 </i>
    <i name="e_0_energy">      4.49892142 </i>
   </energy>
  </scstep>
  <scstep>
   <time name="dav">    2.67    2.67</time>
   <time name="total">    2.68    2.68</time>
   <energy>
    <i name="e_fr_energy">    -25.08061547 </i>
    <i name="e_wo_entrp">    -25.07524108 </i>
    <i name="e_0_energy">    -25.07927187 </i>
   </energy>
  </scstep>
  <scstep>
   <time name="dav">    2.09    2.09</time>
   <time name="total">    2.11    2.11</time>
   <energy>
    <i name="e_fr_energy">    -26.01308072 </i>
    <i name="e_wo_entrp">    -26.00762418 </i>
    <i name="e_0_energy">    -26.01171659 </i>
   </energy>
  </scstep>
  <scstep>
   <time name="dav">    2.37    2.37</time>
   <time name="total">    2.51    2.51</time>
   <energy>
    <i name="e_fr_energy">    -26.04117937 </i>
    <i name="e_wo_entrp">    -26.03571689 </i>
    <i name="e_0_energy">    -26.03981375 </i>
   </energy>
  </scstep>
  <scstep>
   <time name="dav">    2.36    2.36</time>
   <time name="total">    2.51    2.51</time>
   <energy>
    <i name="e_fr_energy">    -24.44253643 </i>
    <i name="e_wo_entrp">    -24.43687559 </i>
    <i name="e_0_energy">    -24.44112122 </i>
   </energy>
  </scstep>
  <scstep>
   <time name="dav">    2.79    2.79</time>
   <time name="total">    2.94    2.94</time>
   <energy>
    <i name="e_fr_energy">    -24.33767919 </i>
    <i name="e_wo_entrp">    -24.33204883 </i>
    <i name="e_0_energy">    -24.33627160 </i>
   </energy>
  </scstep>
  <scstep>
   <time name="dav">    2.00    2.00</time>
   <time name="total">    2.15    2.15</time>
   <energy>
    <i name="e_fr_energy">    -24.32545521 </i>
    <i name="e_wo_entrp">    -24.31984754 </i>
    <i name="e_0_energy">    -24.32405329 </i>
   </energy>
  </scstep>
  <scstep>
   <time name="dav">    2.52    2.52</time>
   <time name="total">    2.67    2.67</time>
   <energy>
    <i name="e_fr_energy">    -24.32514472 </i>
    <i name="e_wo_entrp">    -24.31952863 </i>
    <i name="e_0_energy">    -24.32374070 </i>
   </energy>
  </scstep>
  <scstep>
   <time name="dav">    2.13    2.13</time>
   <time name="total">    2.28    2.28</time>
   <energy>
    <i name="e_fr_energy">    -24.32516067 </i>
    <i name="e_wo_entrp">    -24.31954585 </i>
    <i name="e_0_energy">    -24.32375697 </i>
   </energy>
  </scstep>
  <scstep>
   <time name="dav">    1.71    1.71</time>
   <time name="total">    1.86    1.86</time>
   <energy>
    <i name="e_fr_energy">    -24.32516278 </i>
    <i name="e_wo_entrp">    -24.31954814 </i>
    <i name="e_0_energy">    -24.32375912 </i>
   </energy>
  </scstep>
  <scstep>
   <time name="dav">    1.34    1.34</time>
   <time name="total">    1.36    1.37</time>
   <energy>
    <i name="alphaZ">    350.43204871 </i>
    <i name="ewald">  -3260.29821023 </i>
    <i name="hartreedc">   -279.70518266 </i>
    <i name="XCdc">     11.10557534 </i>
    <i name="pawpsdc">   2341.84152980 </i>
    <i name="pawaedc">  -2237.82280680 </i>
    <i name="eentropy">     -0.00561464 </i>
    <i name="bandstr">    134.58934750 </i>
    <i name="atom">   2915.53815049 </i>
    <i name="e_fr_energy">    -24.32516248 </i>
    <i name="e_wo_entrp">    -24.31954785 </i>
    <i name="e_0_energy">    -24.32375883 </i>
   </energy>
  </scstep>
  <structure>
   <crystal>
    <varray name="basis" >
     <v>       4.05000000       0.00000000       0.00000000 </v>
     <v>       0.00000000       4.05000000       0.00000000 </v>
     <v>       0.00000000       0.00000000       4.05000000 </v>
    </varray>
    <i name="volume">     66.43012500 </i>
    <varray name="rec_basis" >
     <v>       0.24691358       0.00000000       0.00000000 </v>
     <v>       0.00000000       0.24691358       0.00000000 </v>
     <v>       0.00000000       0.00000000       0.24691358 </v>
    </varray>
   </crystal>
   <varray name="positions" >
    <v>       0.00000000       0.00000000       0.00000000 </v>
    <v>       0.00000000       0.50000000       0.50000000 </v>
    <v>       0.50000000       0.00000000       0.50000000 </v>
    <v>       0.50000000       0.50000000       0.00000000 </v>
   </varray>
  </structure>
  <varray name="forces" >
   <v>      -0.00000000       0.00000000       0.00000000 </v>
   <v>       0.00000000       0.00000000       0.00000000 </v>
   <v>       0.00000000       0.00000000      -0.00000000 </v>
   <v>      -0.00000000      -0.00000000      -0.00000000 </v>
  </varray>
  <varray name="stress" >
   <v>     -98.39611003       0.00000000       0.00000000 </v>
   <v>       0.00000000     -98.39611003       0.00000000 </v>
   <v>      -0.00000000       0.00000000     -98.39611003 </v>
  </varray>
  <energy>
   <i name="e_fr_energy">    -24.32516248 </i>
   <i name="e_wo_entrp">    -24.32375883 </i>
   <i name="e_0_energy">     -0.00561464 </i>
  </energy>
  <time name="totalsc">   29.20   30.68</time>
  <eigenvalues>
   <array>
    <dimension dim="1">band</dimension>
    <dimension dim="2">kpoint</dimension>
    <dimension dim="3">spin</dimension>
    <field>eigene</field>
    <field>occ</field>
    <set>
     <set comment="spin 1">
      <set comment="kpoint 1">
       <r>   -2.6485    1.0000 </r>
       <r>    0.4074    1.0000 </r>
       <r>    0.4074    1.0000 </r>
       <r>    0.4074    1.0000 </r>
       <r>    0.7977    1.0000 </r>
       <r>    0.7977    1.0000 </r>
       <r>    0.7977    1.0000 </r>
       <r>    3.2160    1.0000 </r>
       <r>    3.2346    1.0000 </r>
       <r>    3.2346    1.0000 </r>
       <r>    5.0720    1.0000 </r>
       <r>    5.0720    1.0000 </r>
       <r>    6.4555    0.5973 </r>
       <r>    6.4555    0.5973 </r>
       <r>    6.4555    0.5973 </r>
       <r>    6.7685   -0.0130 </r>
       <r>    6.7685   -0.0130 </r>
       <r>    6.7685   -0.0130 </r>
       <r>    6.8683    0.0049 </r>
       <r>    6.8683    0.0049 </r>
       <r>    6.8683    0.0049 </r>
       <r>    8.5807    0.0000 </r>
       <r>    8.5807    0.0000 </r>
       <r>    8.5807    0.0000 </r>
      </set>
      <set comment="kpoint 2">
       <r>   -2.5870    1.0000 </r>
       <r>    0.4289    1.0000 </r>
       <r>    0.4514    1.0000 </r>
       <r>    0.4514    1.0000 </r>
       <r>    0.8221    1.0000 </r>
       <r>    0.8346    1.0000 </r>
       <r>    0.8346    1.0000 </r>
       <r>    3.1814    1.0000 </r>
       <r>    3.2622    1.0000 </r>
       <r>    3.2647    1.0000 </r>
       <r>    5.0311    1.0000 </r>
       <r>    5.0879    1.0000 </r>
       <r>    6.3819    0.9152 </r>
       <r>    6.3819    0.9152 </r>
       <r>    6.4319    0.7152 </r>
       <r>    6.4435    0.6586 </r>
       <r>    6.4435    0.6586 </r>
       <r>    6.6818   -0.0496 </r>
       <r>    6.7999   -0.0031 </r>
       <r>    6.8644    0.0048 </r>
       <r>    6.8644    0.0048 </r>
       <r>    8.2295    0.0000 </r>
       <r>    8.9583    0.0000 </r>
       <r>    8.9583    0.0000 </r>
      </set>
      <set comment="kpoint 3">
       <r>   -2.4649    1.0000 </r>
       <r>    0.4689    1.0000 </r>
       <r>    0.5379    1.0000 </r>
       <r>    0.5379    1.0000 </r>
       <r>    0.8707    1.0000 </r>
       <r>    0.9084    1.0000 </r>
       <r>    0.9084    1.0000 </r>
       <r>    3.1089    1.0000 </r>
       <r>    3.3224    1.0000 </r>
       <r>    3.3246    1.0000 </r>
       <r>    4.9513    1.0000 </r>
       <r>    5.1193    1.0000 </r>
       <r>    5.9516    0.9986 </r>
       <r>    5.9516    0.9986 </r>
       <r>    6.2814    1.0516 </r>
       <r>    6.2814    1.0516 </r>
       <r>    6.3819    0.9153 </r>
       <r>    6.5071    0.3285 </r>
       <r>    6.6727   -0.0512 </r>
       <r>    6.8639    0.0048 </r>
       <r>    6.8639    0.0048 </r>
       <r>    7.6658    0.0000 </r>
       <r>    9.5025    0.0000 </r>
       <r>    9.5025    0.0000 </r>
      </set>
      <set comment="kpoint 4">
       <r>   -2.2840    1.0000 </r>
       <r>    0.5210    1.0000 </r>
       <r>    0.6636    1.0000 </r>
       <r>    0.6636    1.0000 </r>
       <r>    0.9429    1.0000 </r>
       <r>    1.0188    1.0000 </r>
       <r>    1.0188    1.0000 </r>
       <r>    3.0036    1.0000 </r>
       <r>    3.4124    1.0000 </r>
       <r>    3.4141    1.0000 </r>
       <r>    4.8367    1.0000 </r>
       <r>    5.1659    1.0000 </r>
       <r>    5.4472    1.0000 </r>
       <r>    5.4472    1.0000 </r>
       <r>    6.1084    0.9966 </r>
       <r>    6.1084    0.9966 </r>
       <r>    6.2302    1.0360 </r>
       <r>    6.2927    1.0506 </r>
       <r>    6.5117    0.3059 </r>
       <r>    6.8639    0.0048 </r>
       <r>    6.8639    0.0048 </r>
       <r>    7.0468    0.0005 </r>
       <r>   10.1105    0.0000 </r>
       <r>   10.1105    0.0000 </r>
      </set>
      <set comment="kpoint 5">
       <r>   -2.0470    1.0000 </r>
       <r>    0.5740    1.0000 </r>
       <r>    0.8231    1.0000 </r>
       <r>    0.8231    1.0000 </r>
       <r>    1.0376    1.0000 </r>
       <r>    1.1654    1.0000 </r>
       <r>    1.1654    1.0000 </r>
       <r>    2.8704    1.0000 </r>
       <r>    3.5313    1.0000 </r>
       <r>    3.5326    1.0000 </r>
       <r>    4.6937    1.0000 </r>
       <r>    4.9442    1.0000 </r>
       <r>    4.9442    1.0000 </r>
       <r>    5.2265    1.0000 </r>
       <r>    5.8130    0.9999 </r>
       <r>    5.8910    0.9996 </r>
       <r>    5.8910    0.9996 </r>
       <r>    6.1311    0.9995 </r>
       <r>    6.3651    0.9622 </r>
       <r>    6.5105    0.3118 </r>
       <r>    6.8641    0.0048 </r>
       <r>    6.8641    0.0048 </r>
       <r>   10.7454    0.0000 </r>
       <r>   10.7454    0.0000 </r>
      </set>
      <set comment="kpoint 6">
       <r>   -1.7583    1.0000 </r>
       <r>    0.6102    1.0000 </r>
       <r>    1.0080    1.0000 </r>
       <r>    1.0080    1.0000 </r>
       <r>    1.1534    1.0000 </r>
       <r>    1.3474    1.0000 </r>
       <r>    1.3474    1.0000 </r>
       <r>    2.7144    1.0000 </r>
       <r>    3.6771    1.0000 </r>
       <r>    3.6793    1.0000 </r>
       <r>    4.4566    1.0000 </r>
       <r>    4.4566    1.0000 </r>
       <r>    4.5318    1.0000 </r>
       <r>    5.2803    1.0000 </r>
       <r>    5.3002    1.0000 </r>
       <r>    5.6422    1.0000 </r>
       <r>    5.6422    1.0000 </r>
       <r>    5.8961    0.9995 </r>
       <r>    6.1027    0.9961 </r>
       <r>    6.2496    1.0444 </r>
       <r>    6.8645    0.0048 </r>
       <r>    6.8645    0.0048 </r>
       <r>   11.3878    0.0000 </r>
       <r>   11.3878    0.0000 </r>
      </set>
      <set comment="kpoint 7">
       <r>   -1.4246    1.0000 </r>
       <r>    0.6042    1.0000 </r>
       <r>    1.2060    1.0000 </r>
       <r>    1.2060    1.0000 </r>
       <r>    1.2888    1.0000 </r>
       <r>    1.5637    1.0000 </r>
       <r>    1.5637    1.0000 </r>
       <r>    2.5412    1.0000 </r>
       <r>    3.8444    1.0000 </r>
       <r>    3.8531    1.0000 </r>
       <r>    3.9909    1.0000 </r>
       <r>    3.9909    1.0000 </r>
       <r>    4.3668    1.0000 </r>
       <r>    4.7547    1.0000 </r>
       <r>    5.3813    1.0000 </r>
       <r>    5.3813    1.0000 </r>
       <r>    5.3856    1.0000 </r>
       <r>    5.6257    1.0000 </r>
       <r>    5.7588    1.0000 </r>
       <r>    6.1417    1.0016 </r>
       <r>    6.8648    0.0048 </r>
       <r>    6.8648    0.0048 </r>
       <r>   12.0165    0.0000 </r>
       <r>   12.0165    0.0000 </r>
      </set>
      <set comment="kpoint 8">
       <r>   -1.0557    1.0000 </r>
       <r>    0.5246    1.0000 </r>
       <r>    1.3980    1.0000 </r>
       <r>    1.3980    1.0000 </r>
       <r>    1.4415    1.0000 </r>
       <r>    1.8131    1.0000 </r>
       <r>    1.8131    1.0000 </r>
       <r>    2.3567    1.0000 </r>
       <r>    3.5511    1.0000 </r>
       <r>    3.5511    1.0000 </r>
       <r>    3.9993    1.0000 </r>
       <r>    4.0527    1.0000 </r>
       <r>    4.2464    1.0000 </r>
       <r>    4.3279    1.0000 </r>
       <r>    5.1351    1.0000 </r>
       <r>    5.1351    1.0000 </r>
       <r>    5.3426    1.0000 </r>
       <r>    5.4387    1.0000 </r>
       <r>    5.4808    1.0000 </r>
       <r>    6.0318    0.9959 </r>
       <r>    6.8651    0.0048 </r>
       <r>    6.8651    0.0048 </r>
       <r>   12.5714    0.0000 </r>
       <r>   12.5714    0.0000 </r>
      </set>
      <set comment="kpoint 9">
       <r>   -0.6669    1.0000 </r>
       <r>    0.3466    1.0000 </r>
       <r>    1.5563    1.0000 </r>
       <r>    1.5563    1.0000 </r>
       <r>    1.6089    1.0000 </r>
       <r>    2.0952    1.0000 </r>
       <r>    2.0952    1.0000 </r>
       <r>    2.1664    1.0000 </r>
       <r>    3.1399    1.0000 </r>
       <r>    3.1399    1.0000 </r>
       <r>    3.9849    1.0000 </r>
       <r>    4.0466    1.0000 </r>
       <r>    4.2760    1.0000 </r>
       <r>    4.3459    1.0000 </r>
       <r>    4.9373    1.0000 </r>
       <r>    4.9373    1.0000 </r>
       <r>    5.0590    1.0000 </r>
       <r>    5.1339    1.0000 </r>
       <r>    5.5841    1.0000 </r>
       <r>    5.9193    0.9992 </r>
       <r>    6.8654    0.0048 </r>
       <r>    6.8654    0.0048 </r>
       <r>   12.8547    0.0000 </r>
       <r>   12.8547    0.0000 </r>
      </set>
      <set comment="kpoint 10">
       <r>   -0.2812    1.0000 </r>
       <r>    0.0691    1.0000 </r>
       <r>    1.6480    1.0000 </r>
       <r>    1.6480    1.0000 </r>
       <r>    1.7881    1.0000 </r>
       <r>    1.9752    1.0000 </r>
       <r>    2.4101    1.0000 </r>
       <r>    2.4101    1.0000 </r>
       <r>    2.7598    1.0000 </r>
       <r>    2.7598    1.0000 </r>
       <r>    3.9139    1.0000 </r>
       <r>    3.9178    1.0000 </r>
       <r>    4.5206    1.0000 </r>
       <r>    4.5783    1.0000 </r>
       <r>    4.7831    1.0000 </r>
       <r>    4.8251    1.0000 </r>
       <r>    4.8251    1.0000 </r>
       <r>    4.8455    1.0000 </r>
       <r>    5.6931    1.0000 </r>
       <r>    5.8057    0.9999 </r>
       <r>    6.8655    0.0048 </r>
       <r>    6.8655    0.0048 </r>
       <r>   12.8963    0.0000 </r>
       <r>   12.8963    0.0000 </r>
      </set>
      <set comment="kpoint 11">
       <r>   -2.5261    1.0000 </r>
       <r>    0.4732    1.0000 </r>
       <r>    0.4732    1.0000 </r>
       <r>    0.4918    1.0000 </r>
       <r>    0.8587    1.0000 </r>
       <r>    0.8587    1.0000 </r>
       <r>    0.8738    1.0000 </r>
       <r>    3.1617    1.0000 </r>
       <r>    3.2766    1.0000 </r>
       <r>    3.2920    1.0000 </r>
       <r>    5.0195    1.0000 </r>
       <r>    5.0771    1.0000 </r>
       <r>    6.2032    1.0232 </r>
       <r>    6.2736    1.0510 </r>
       <r>    6.2736    1.0510 </r>
       <r>    6.3341    1.0208 </r>
       <r>    6.4224    0.7591 </r>
       <r>    6.4224    0.7591 </r>
       <r>    6.7984   -0.0034 </r>
       <r>    6.7984   -0.0034 </r>
       <r>    6.8260    0.0019 </r>
       <r>    8.6190    0.0000 </r>
       <r>    8.6190    0.0000 </r>
       <r>    9.2632    0.0000 </r>
      </set>
      <set comment="kpoint 12">
       <r>   -2.4050    1.0000 </r>
       <r>    0.5138    1.0000 </r>
       <r>    0.5603    1.0000 </r>
       <r>    0.5712    1.0000 </r>
       <r>    0.9067    1.0000 </r>
       <r>    0.9319    1.0000 </r>
       <r>    0.9520    1.0000 </r>
       <r>    3.0994    1.0000 </r>
       <r>    3.3280    1.0000 </r>
       <r>    3.3480    1.0000 </r>
       <r>    4.9519    1.0000 </r>
       <r>    5.1017    1.0000 </r>
       <r>    5.8128    0.9999 </r>
       <r>    5.8148    0.9999 </r>
       <r>    6.0712    0.9951 </r>
       <r>    6.2220    1.0321 </r>
       <r>    6.2885    1.0513 </r>
       <r>    6.3612    0.9716 </r>
       <r>    6.6777   -0.0505 </r>
       <r>    6.7961   -0.0040 </r>
       <r>    6.8036   -0.0022 </r>
       <r>    8.0853    0.0000 </r>
       <r>    9.1547    0.0000 </r>
       <r>    9.7458    0.0000 </r>
      </set>
      <set comment="kpoint 13">
       <r>   -2.2255    1.0000 </r>
       <r>    0.5666    1.0000 </r>
       <r>    0.6869    1.0000 </r>
       <r>    0.6869    1.0000 </r>
       <r>    0.9779    1.0000 </r>
       <r>    1.0413    1.0000 </r>
       <r>    1.0682    1.0000 </r>
       <r>    2.9997    1.0000 </r>
       <r>    3.4146    1.0000 </r>
       <r>    3.4308    1.0000 </r>
       <r>    4.8434    1.0000 </r>
       <r>    5.1505    1.0000 </r>
       <r>    5.3139    1.0000 </r>
       <r>    5.3566    1.0000 </r>
       <r>    5.7725    1.0000 </r>
       <r>    6.0594    0.9951 </r>
       <r>    6.1218    0.9981 </r>
       <r>    6.2495    1.0444 </r>
       <r>    6.5255    0.2413 </r>
       <r>    6.7936   -0.0047 </r>
       <r>    6.7940   -0.0046 </r>
       <r>    7.5038    0.0000 </r>
       <r>    9.7350    0.0000 </r>
       <r>   10.3136    0.0000 </r>
      </set>
      <set comment="kpoint 14">
       <r>   -1.9905    1.0000 </r>
       <r>    0.6206    1.0000 </r>
       <r>    0.8350    1.0000 </r>
       <r>    0.8476    1.0000 </r>
       <r>    1.0713    1.0000 </r>
       <r>    1.1866    1.0000 </r>
       <r>    1.2204    1.0000 </r>
       <r>    2.8707    1.0000 </r>
       <r>    3.5317    1.0000 </r>
       <r>    3.5389    1.0000 </r>
       <r>    4.7079    1.0000 </r>
       <r>    4.8176    1.0000 </r>
       <r>    4.8843    1.0000 </r>
       <r>    5.2163    1.0000 </r>
       <r>    5.3844    1.0000 </r>
       <r>    5.8525    0.9998 </r>
       <r>    5.9123    0.9993 </r>
       <r>    6.0736    0.9951 </r>
       <r>    6.3639    0.9651 </r>
       <r>    6.7889   -0.0060 </r>
       <r>    6.7925   -0.0050 </r>
       <r>    6.9722    0.0021 </r>
       <r>   10.3231    0.0000 </r>
       <r>   10.9219    0.0000 </r>
      </set>
      <set comment="kpoint 15">
       <r>   -1.7042    1.0000 </r>
       <r>    0.6577    1.0000 </r>
       <r>    1.0100    1.0000 </r>
       <r>    1.0343    1.0000 </r>
       <r>    1.1856    1.0000 </r>
       <r>    1.3670    1.0000 </r>
       <r>    1.4049    1.0000 </r>
       <r>    2.7186    1.0000 </r>
       <r>    3.6658    1.0000 </r>
       <r>    3.6784    1.0000 </r>
       <r>    4.3387    1.0000 </r>
       <r>    4.4174    1.0000 </r>
       <r>    4.5595    1.0000 </r>
       <r>    4.9401    1.0000 </r>
       <r>    5.2968    1.0000 </r>
       <r>    5.6140    1.0000 </r>
       <r>    5.6708    1.0000 </r>
       <r>    5.8422    0.9999 </r>
       <r>    6.1709    1.0098 </r>
       <r>    6.5559    0.1186 </r>
       <r>    6.7868   -0.0067 </r>
       <r>    6.7913   -0.0053 </r>
       <r>   10.8943    0.0000 </r>
       <r>   11.5447    0.0000 </r>
      </set>
      <set comment="kpoint 16">
       <r>   -1.3731    1.0000 </r>
       <r>    0.6520    1.0000 </r>
       <r>    1.2034    1.0000 </r>
       <r>    1.2347    1.0000 </r>
       <r>    1.3190    1.0000 </r>
       <r>    1.5809    1.0000 </r>
       <r>    1.6159    1.0000 </r>
       <r>    2.5493    1.0000 </r>
       <r>    3.7978    1.0000 </r>
       <r>    3.8505    1.0000 </r>
       <r>    3.8837    1.0000 </r>
       <r>    3.9665    1.0000 </r>
       <r>    4.4246    1.0000 </r>
       <r>    4.5018    1.0000 </r>
       <r>    5.3630    1.0000 </r>
       <r>    5.3903    1.0000 </r>
       <r>    5.4151    1.0000 </r>
       <r>    5.5795    1.0000 </r>
       <r>    5.8892    0.9996 </r>
       <r>    6.2974    1.0495 </r>
       <r>    6.7860   -0.0069 </r>
       <r>    6.7904   -0.0056 </r>
       <r>   11.4202    0.0000 </r>
       <r>   12.1508    0.0000 </r>
      </set>
      <set comment="kpoint 17">
       <r>   -1.0069    1.0000 </r>
       <r>    0.5719    1.0000 </r>
       <r>    1.4003    1.0000 </r>
       <r>    1.4299    1.0000 </r>
       <r>    1.4693    1.0000 </r>
       <r>    1.8272    1.0000 </r>
       <r>    1.8477    1.0000 </r>
       <r>    2.3685    1.0000 </r>
       <r>    3.4571    1.0000 </r>
       <r>    3.5380    1.0000 </r>
       <r>    3.8818    1.0000 </r>
       <r>    4.0472    1.0000 </r>
       <r>    4.1384    1.0000 </r>
       <r>    4.3692    1.0000 </r>
       <r>    5.1264    1.0000 </r>
       <r>    5.1703    1.0000 </r>
       <r>    5.3044    1.0000 </r>
       <r>    5.4951    1.0000 </r>
       <r>    5.5617    1.0000 </r>
       <r>    6.1311    0.9995 </r>
       <r>    6.7861   -0.0069 </r>
       <r>    6.7896   -0.0058 </r>
       <r>   11.8632    0.0000 </r>
       <r>   12.6034    0.0000 </r>
      </set>
      <set comment="kpoint 18">
       <r>   -0.6206    1.0000 </r>
       <r>    0.3924    1.0000 </r>
       <r>    1.5722    1.0000 </r>
       <r>    1.5916    1.0000 </r>
       <r>    1.6341    1.0000 </r>
       <r>    2.0995    1.0000 </r>
       <r>    2.1048    1.0000 </r>
       <r>    2.1818    1.0000 </r>
       <r>    3.0630    1.0000 </r>
       <r>    3.1360    1.0000 </r>
       <r>    3.8583    1.0000 </r>
       <r>    3.8993    1.0000 </r>
       <r>    4.2661    1.0000 </r>
       <r>    4.4715    1.0000 </r>
       <r>    4.9389    1.0000 </r>
       <r>    4.9693    1.0000 </r>
       <r>    5.0286    1.0000 </r>
       <r>    5.2424    1.0000 </r>
       <r>    5.6092    1.0000 </r>
       <r>    5.9905    0.9974 </r>
       <r>    6.7865   -0.0067 </r>
       <r>    6.7888   -0.0061 </r>
       <r>   12.1888    0.0000 </r>
       <r>   12.6402    0.0000 </r>
      </set>
      <set comment="kpoint 19">
       <r>   -0.2364    1.0000 </r>
       <r>    0.1137    1.0000 </r>
       <r>    1.6777    1.0000 </r>
       <r>    1.6839    1.0000 </r>
       <r>    1.8102    1.0000 </r>
       <r>    1.9942    1.0000 </r>
       <r>    2.3777    1.0000 </r>
       <r>    2.4108    1.0000 </r>
       <r>    2.7088    1.0000 </r>
       <r>    2.7653    1.0000 </r>
       <r>    3.7957    1.0000 </r>
       <r>    3.8000    1.0000 </r>
       <r>    4.5047    1.0000 </r>
       <r>    4.6829    1.0000 </r>
       <r>    4.7602    1.0000 </r>
       <r>    4.8379    1.0000 </r>
       <r>    4.8489    1.0000 </r>
       <r>    4.9465    1.0000 </r>
       <r>    5.7307    1.0000 </r>
       <r>    5.8580    0.9998 </r>
       <r>    6.7872   -0.0065 </r>
       <r>    6.7880   -0.0063 </r>
       <r>   12.4004    0.0000 </r>
       <r>   12.5406    0.0000 </r>
      </set>
      <set comment="kpoint 20">
       <r>   -2.2859    1.0000 </r>
       <r>    0.6020    1.0000 </r>
       <r>    0.6020    1.0000 </r>
       <r>    0.6374    1.0000 </r>
       <r>    0.9786    1.0000 </r>
       <r>    0.9786    1.0000 </r>
       <r>    1.0378    1.0000 </r>
       <r>    3.0600    1.0000 </r>
       <r>    3.3596    1.0000 </r>
       <r>    3.3954    1.0000 </r>
       <r>    4.9223    1.0000 </r>
       <r>    5.0990    1.0000 </r>
       <r>    5.5391    1.0000 </r>
       <r>    5.5824    1.0000 </r>
       <r>    5.5824    1.0000 </r>
       <r>    6.1149    0.9972 </r>
       <r>    6.2614    1.0484 </r>
       <r>    6.2614    1.0484 </r>
       <r>    6.6704   -0.0514 </r>
       <r>    6.6704   -0.0514 </r>
       <r>    6.7394   -0.0257 </r>
       <r>    8.6162    0.0000 </r>
       <r>    8.6162    0.0000 </r>
       <r>   10.1604    0.0000 </r>
      </set>
      <set comment="kpoint 21">
       <r>   -2.1095    1.0000 </r>
       <r>    0.6564    1.0000 </r>
       <r>    0.7303    1.0000 </r>
       <r>    0.7359    1.0000 </r>
       <r>    1.0479    1.0000 </r>
       <r>    1.0861    1.0000 </r>
       <r>    1.1629    1.0000 </r>
       <r>    2.9793    1.0000 </r>
       <r>    3.4316    1.0000 </r>
       <r>    3.4648    1.0000 </r>
       <r>    4.8389    1.0000 </r>
       <r>    5.0842    1.0000 </r>
       <r>    5.1394    1.0000 </r>
       <r>    5.1725    1.0000 </r>
       <r>    5.2768    1.0000 </r>
       <r>    5.9654    0.9982 </r>
       <r>    6.1142    0.9972 </r>
       <r>    6.1774    1.0122 </r>
       <r>    6.5061    0.3334 </r>
       <r>    6.6629   -0.0516 </r>
       <r>    6.6959   -0.0454 </r>
       <r>    8.0292    0.0000 </r>
       <r>    9.1695    0.0000 </r>
       <r>   10.6750    0.0000 </r>
      </set>
      <set comment="kpoint 22">
       <r>   -1.8783    1.0000 </r>
       <r>    0.7123    1.0000 </r>
       <r>    0.8654    1.0000 </r>
       <r>    0.8935    1.0000 </r>
       <r>    1.1387    1.0000 </r>
       <r>    1.2288    1.0000 </r>
       <r>    1.3222    1.0000 </r>
       <r>    2.8637    1.0000 </r>
       <r>    3.5406    1.0000 </r>
       <r>    3.5527    1.0000 </r>
       <r>    4.5988    1.0000 </r>
       <r>    4.7214    1.0000 </r>
       <r>    4.7611    1.0000 </r>
       <r>    4.9163    1.0000 </r>
       <r>    5.2110    1.0000 </r>
       <r>    5.7762    1.0000 </r>
       <r>    5.9227    0.9992 </r>
       <r>    6.0233    0.9962 </r>
       <r>    6.3249    1.0317 </r>
       <r>    6.6571   -0.0509 </r>
       <r>    6.6701   -0.0515 </r>
       <r>    7.4774    0.0000 </r>
       <r>    9.7168    0.0000 </r>
       <r>   11.2436    0.0000 </r>
      </set>
      <set comment="kpoint 23">
       <r>   -1.5968    1.0000 </r>
       <r>    0.7512    1.0000 </r>
       <r>    1.0240    1.0000 </r>
       <r>    1.0838    1.0000 </r>
       <r>    1.2497    1.0000 </r>
       <r>    1.4058    1.0000 </r>
       <r>    1.5080    1.0000 </r>
       <r>    2.7223    1.0000 </r>
       <r>    3.6490    1.0000 </r>
       <r>    3.6825    1.0000 </r>
       <r>    4.1349    1.0000 </r>
       <r>    4.3364    1.0000 </r>
       <r>    4.5299    1.0000 </r>
       <r>    4.5950    1.0000 </r>
       <r>    5.3042    1.0000 </r>
       <r>    5.5564    1.0000 </r>
       <r>    5.6973    1.0000 </r>
       <r>    5.8056    0.9999 </r>
       <r>    6.1260    0.9987 </r>
       <r>    6.6527   -0.0501 </r>
       <r>    6.6552   -0.0506 </r>
       <r>    7.0076    0.0012 </r>
       <r>   10.2389    0.0000 </r>
       <r>   11.8320    0.0000 </r>
      </set>
      <set comment="kpoint 24">
       <r>   -1.2711    1.0000 </r>
       <r>    0.7463    1.0000 </r>
       <r>    1.2074    1.0000 </r>
       <r>    1.2892    1.0000 </r>
       <r>    1.3791    1.0000 </r>
       <r>    1.6153    1.0000 </r>
       <r>    1.7098    1.0000 </r>
       <r>    2.5624    1.0000 </r>
       <r>    3.6977    1.0000 </r>
       <r>    3.7325    1.0000 </r>
       <r>    3.8518    1.0000 </r>
       <r>    3.9160    1.0000 </r>
       <r>    4.1619    1.0000 </r>
       <r>    4.4953    1.0000 </r>
       <r>    5.3239    1.0000 </r>
       <r>    5.4147    1.0000 </r>
       <r>    5.4542    1.0000 </r>
       <r>    5.5505    1.0000 </r>
       <r>    5.8867    0.9996 </r>
       <r>    6.6427   -0.0464 </r>
       <r>    6.6471   -0.0483 </r>
       <r>    6.6493   -0.0491 </r>
       <r>   10.7170    0.0000 </r>
       <r>   12.3458    0.0000 </r>
      </set>
      <set comment="kpoint 25">
       <r>   -0.9105    1.0000 </r>
       <r>    0.6649    1.0000 </r>
       <r>    1.4064    1.0000 </r>
       <r>    1.4913    1.0000 </r>
       <r>    1.5247    1.0000 </r>
       <r>    1.8552    1.0000 </r>
       <r>    1.9148    1.0000 </r>
       <r>    2.3902    1.0000 </r>
       <r>    3.2923    1.0000 </r>
       <r>    3.5104    1.0000 </r>
       <r>    3.7600    1.0000 </r>
       <r>    3.8654    1.0000 </r>
       <r>    4.0460    1.0000 </r>
       <r>    4.4793    1.0000 </r>
       <r>    5.1054    1.0000 </r>
       <r>    5.2161    1.0000 </r>
       <r>    5.2806    1.0000 </r>
       <r>    5.5397    1.0000 </r>
       <r>    5.6050    1.0000 </r>
       <r>    6.3738    0.9392 </r>
       <r>    6.6430   -0.0465 </r>
       <r>    6.6465   -0.0481 </r>
       <r>   11.1334    0.0000 </r>
       <r>   12.3536    0.0000 </r>
      </set>
      <set comment="kpoint 26">
       <r>   -0.5292    1.0000 </r>
       <r>    0.4823    1.0000 </r>
       <r>    1.5982    1.0000 </r>
       <r>    1.6605    1.0000 </r>
       <r>    1.6840    1.0000 </r>
       <r>    2.1150    1.0000 </r>
       <r>    2.1232    1.0000 </r>
       <r>    2.2114    1.0000 </r>
       <r>    2.9261    1.0000 </r>
       <r>    3.1268    1.0000 </r>
       <r>    3.6817    1.0000 </r>
       <r>    3.7141    1.0000 </r>
       <r>    4.2619    1.0000 </r>
       <r>    4.5824    1.0000 </r>
       <r>    4.9365    1.0000 </r>
       <r>    5.0099    1.0000 </r>
       <r>    5.0136    1.0000 </r>
       <r>    5.3086    1.0000 </r>
       <r>    5.6773    1.0000 </r>
       <r>    6.1653    1.0079 </r>
       <r>    6.6414   -0.0458 </r>
       <r>    6.6443   -0.0471 </r>
       <r>   11.4771    0.0000 </r>
       <r>   12.1725    0.0000 </r>
      </set>
      <set comment="kpoint 27">
       <r>   -0.1484    1.0000 </r>
       <r>    0.2012    1.0000 </r>
       <r>    1.7332    1.0000 </r>
       <r>    1.7547    1.0000 </r>
       <r>    1.8540    1.0000 </r>
       <r>    2.0311    1.0000 </r>
       <r>    2.3233    1.0000 </r>
       <r>    2.4047    1.0000 </r>
       <r>    2.6239    1.0000 </r>
       <r>    2.7733    1.0000 </r>
       <r>    3.6182    1.0000 </r>
       <r>    3.6456    1.0000 </r>
       <r>    4.4965    1.0000 </r>
       <r>    4.7469    1.0000 </r>
       <r>    4.7765    1.0000 </r>
       <r>    4.8546    1.0000 </r>
       <r>    4.8828    1.0000 </r>
       <r>    5.0259    1.0000 </r>
       <r>    5.8263    0.9999 </r>
       <r>    5.9874    0.9975 </r>
       <r>    6.6414   -0.0458 </r>
       <r>    6.6425   -0.0463 </r>
       <r>   11.7515    0.0000 </r>
       <r>   11.9752    0.0000 </r>
      </set>
      <set comment="kpoint 28">
       <r>   -1.9375    1.0000 </r>
       <r>    0.7873    1.0000 </r>
       <r>    0.7873    1.0000 </r>
       <r>    0.8133    1.0000 </r>
       <r>    1.1525    1.0000 </r>
       <r>    1.1525    1.0000 </r>
       <r>    1.2963    1.0000 </r>
       <r>    2.9267    1.0000 </r>
       <r>    3.4817    1.0000 </r>
       <r>    3.5139    1.0000 </r>
       <r>    4.7907    1.0000 </r>
       <r>    4.7907    1.0000 </r>
       <r>    4.7943    1.0000 </r>
       <r>    4.9033    1.0000 </r>
       <r>    5.1655    1.0000 </r>
       <r>    5.8320    0.9999 </r>
       <r>    6.0578    0.9952 </r>
       <r>    6.0578    0.9952 </r>
       <r>    6.4864    0.4344 </r>
       <r>    6.4864    0.4344 </r>
       <r>    6.6090   -0.0140 </r>
       <r>    8.5600    0.0000 </r>
       <r>    8.5600    0.0000 </r>
       <r>   11.1408    0.0000 </r>
      </set>
      <set comment="kpoint 29">
       <r>   -1.7122    1.0000 </r>
       <r>    0.8462    1.0000 </r>
       <r>    0.9209    1.0000 </r>
       <r>    0.9542    1.0000 </r>
       <r>    1.2395    1.0000 </r>
       <r>    1.2914    1.0000 </r>
       <r>    1.4603    1.0000 </r>
       <r>    2.8373    1.0000 </r>
       <r>    3.5718    1.0000 </r>
       <r>    3.5746    1.0000 </r>
       <r>    4.3238    1.0000 </r>
       <r>    4.4590    1.0000 </r>
       <r>    4.5733    1.0000 </r>
       <r>    4.7078    1.0000 </r>
       <r>    5.2393    1.0000 </r>
       <r>    5.6639    1.0000 </r>
       <r>    5.8921    0.9996 </r>
       <r>    5.9362    0.9989 </r>
       <r>    6.2844    1.0516 </r>
       <r>    6.4720    0.5106 </r>
       <r>    6.5453    0.1575 </r>
       <r>    7.9819    0.0000 </r>
       <r>    9.0781    0.0000 </r>
       <r>   11.6662    0.0000 </r>
      </set>
      <set comment="kpoint 30">
       <r>   -1.4379    1.0000 </r>
       <r>    0.8879    1.0000 </r>
       <r>    1.0589    1.0000 </r>
       <r>    1.1496    1.0000 </r>
       <r>    1.3455    1.0000 </r>
       <r>    1.4634    1.0000 </r>
       <r>    1.6443    1.0000 </r>
       <r>    2.7171    1.0000 </r>
       <r>    3.6336    1.0000 </r>
       <r>    3.7015    1.0000 </r>
       <r>    3.8811    1.0000 </r>
       <r>    4.1185    1.0000 </r>
       <r>    4.2103    1.0000 </r>
       <r>    4.6076    1.0000 </r>
       <r>    5.3485    1.0000 </r>
       <r>    5.4684    1.0000 </r>
       <r>    5.6900    1.0000 </r>
       <r>    5.7471    1.0000 </r>
       <r>    6.0683    0.9951 </r>
       <r>    6.4620    0.5633 </r>
       <r>    6.5027    0.3507 </r>
       <r>    7.4735    0.0000 </r>
       <r>    9.5702    0.0000 </r>
       <r>   12.1703    0.0000 </r>
      </set>
      <set comment="kpoint 31">
       <r>   -1.1204    1.0000 </r>
       <r>    0.8841    1.0000 </r>
       <r>    1.2262    1.0000 </r>
       <r>    1.3625    1.0000 </r>
       <r>    1.4688    1.0000 </r>
       <r>    1.6664    1.0000 </r>
       <r>    1.8340    1.0000 </r>
       <r>    2.5747    1.0000 </r>
       <r>    3.4669    1.0000 </r>
       <r>    3.6713    1.0000 </r>
       <r>    3.8082    1.0000 </r>
       <r>    3.8360    1.0000 </r>
       <r>    3.8625    1.0000 </r>
       <r>    4.5343    1.0000 </r>
       <r>    5.2603    1.0000 </r>
       <r>    5.4663    1.0000 </r>
       <r>    5.4833    1.0000 </r>
       <r>    5.5100    1.0000 </r>
       <r>    5.8322    0.9999 </r>
       <r>    6.4549    0.6001 </r>
       <r>    6.4756    0.4916 </r>
       <r>    7.0516    0.0005 </r>
       <r>   10.0242    0.0000 </r>
       <r>   12.1099    0.0000 </r>
      </set>
      <set comment="kpoint 32">
       <r>   -0.7685    1.0000 </r>
       <r>    0.8001    1.0000 </r>
       <r>    1.4188    1.0000 </r>
       <r>    1.5756    1.0000 </r>
       <r>    1.6071    1.0000 </r>
       <r>    1.8969    1.0000 </r>
       <r>    2.0103    1.0000 </r>
       <r>    2.4176    1.0000 </r>
       <r>    3.0867    1.0000 </r>
       <r>    3.4658    1.0000 </r>
       <r>    3.5738    1.0000 </r>
       <r>    3.6564    1.0000 </r>
       <r>    4.0506    1.0000 </r>
       <r>    4.5351    1.0000 </r>
       <r>    5.0657    1.0000 </r>
       <r>    5.2416    1.0000 </r>
       <r>    5.2509    1.0000 </r>
       <r>    5.5719    1.0000 </r>
       <r>    5.6380    1.0000 </r>
       <r>    6.4499    0.6262 </r>
       <r>    6.4592    0.5779 </r>
       <r>    6.7128   -0.0383 </r>
       <r>   10.4298    0.0000 </r>
       <r>   11.8501    0.0000 </r>
      </set>
      <set comment="kpoint 33">
       <r>   -0.3953    1.0000 </r>
       <r>    0.6124    1.0000 </r>
       <r>    1.6245    1.0000 </r>
       <r>    1.7578    1.0000 </r>
       <r>    1.7589    1.0000 </r>
       <r>    2.1488    1.0000 </r>
       <r>    2.1530    1.0000 </r>
       <r>    2.2523    1.0000 </r>
       <r>    2.7529    1.0000 </r>
       <r>    3.1102    1.0000 </r>
       <r>    3.4490    1.0000 </r>
       <r>    3.5847    1.0000 </r>
       <r>    4.2609    1.0000 </r>
       <r>    4.6320    1.0000 </r>
       <r>    4.9202    1.0000 </r>
       <r>    4.9884    1.0000 </r>
       <r>    5.0433    1.0000 </r>
       <r>    5.3000    1.0000 </r>
       <r>    5.8098    0.9999 </r>
       <r>    6.4378    0.6868 </r>
       <r>    6.4465    0.6433 </r>
       <r>    6.4501    0.6251 </r>
       <r>   10.7822    0.0000 </r>
       <r>   11.5994    0.0000 </r>
      </set>
      <set comment="kpoint 34">
       <r>   -0.0202    1.0000 </r>
       <r>    0.3280    1.0000 </r>
       <r>    1.8030    1.0000 </r>
       <r>    1.8581    1.0000 </r>
       <r>    1.9180    1.0000 </r>
       <r>    2.0842    1.0000 </r>
       <r>    2.2661    1.0000 </r>
       <r>    2.3614    1.0000 </r>
       <r>    2.5487    1.0000 </r>
       <r>    2.7801    1.0000 </r>
       <r>    3.4332    1.0000 </r>
       <r>    3.4938    1.0000 </r>
       <r>    4.4894    1.0000 </r>
       <r>    4.7328    1.0000 </r>
       <r>    4.8083    1.0000 </r>
       <r>    4.8605    1.0000 </r>
       <r>    4.9056    1.0000 </r>
       <r>    5.0383    1.0000 </r>
       <r>    5.9978    0.9971 </r>
       <r>    6.2046    1.0238 </r>
       <r>    6.4450    0.6509 </r>
       <r>    6.4459    0.6466 </r>
       <r>   11.0848    0.0000 </r>
       <r>   11.3508    0.0000 </r>
      </set>
      <set comment="kpoint 35">
       <r>   -1.4948    1.0000 </r>
       <r>    1.0050    1.0000 </r>
       <r>    1.0175    1.0000 </r>
       <r>    1.0175    1.0000 </r>
       <r>    1.3732    1.0000 </r>
       <r>    1.3732    1.0000 </r>
       <r>    1.6244    1.0000 </r>
       <r>    2.7809    1.0000 </r>
       <r>    3.6000    1.0000 </r>
       <r>    3.6400    1.0000 </r>
       <r>    4.0215    1.0000 </r>
       <r>    4.0215    1.0000 </r>
       <r>    4.3272    1.0000 </r>
       <r>    4.6534    1.0000 </r>
       <r>    5.3205    1.0000 </r>
       <r>    5.5198    1.0000 </r>
       <r>    5.8025    1.0000 </r>
       <r>    5.8025    1.0000 </r>
       <r>    6.2544    1.0462 </r>
       <r>    6.2544    1.0462 </r>
       <r>    6.4382    0.6846 </r>
       <r>    8.4734    0.0000 </r>
       <r>    8.4734    0.0000 </r>
       <r>   12.1092    0.0000 </r>
      </set>
      <set comment="kpoint 36">
       <r>   -1.2302    1.0000 </r>
       <r>    1.0632    1.0000 </r>
       <r>    1.1196    1.0000 </r>
       <r>    1.2190    1.0000 </r>
       <r>    1.4727    1.0000 </r>
       <r>    1.5388    1.0000 </r>
       <r>    1.8026    1.0000 </r>
       <r>    2.6927    1.0000 </r>
       <r>    3.6080    1.0000 </r>
       <r>    3.6224    1.0000 </r>
       <r>    3.7222    1.0000 </r>
       <r>    3.7474    1.0000 </r>
       <r>    4.0379    1.0000 </r>
       <r>    4.5779    1.0000 </r>
       <r>    5.3507    1.0000 </r>
       <r>    5.4493    1.0000 </r>
       <r>    5.6287    1.0000 </r>
       <r>    5.6482    1.0000 </r>
       <r>    6.0188    0.9963 </r>
       <r>    6.2350    1.0382 </r>
       <r>    6.3563    0.9825 </r>
       <r>    7.9344    0.0000 </r>
       <r>    8.9421    0.0000 </r>
       <r>   11.9680    0.0000 </r>
      </set>
      <set comment="kpoint 37">
       <r>   -0.9239    1.0000 </r>
       <r>    1.0603    1.0000 </r>
       <r>    1.2649    1.0000 </r>
       <r>    1.4407    1.0000 </r>
       <r>    1.5876    1.0000 </r>
       <r>    1.7340    1.0000 </r>
       <r>    1.9782    1.0000 </r>
       <r>    2.5782    1.0000 </r>
       <r>    3.2222    1.0000 </r>
       <r>    3.4642    1.0000 </r>
       <r>    3.6216    1.0000 </r>
       <r>    3.7236    1.0000 </r>
       <r>    3.8919    1.0000 </r>
       <r>    4.5210    1.0000 </r>
       <r>    5.1696    1.0000 </r>
       <r>    5.4292    1.0000 </r>
       <r>    5.4399    1.0000 </r>
       <r>    5.6124    1.0000 </r>
       <r>    5.7708    1.0000 </r>
       <r>    6.2228    1.0325 </r>
       <r>    6.2981    1.0493 </r>
       <r>    7.4738    0.0000 </r>
       <r>    9.3789    0.0000 </r>
       <r>   11.6264    0.0000 </r>
      </set>
      <set comment="kpoint 38">
       <r>   -0.5842    1.0000 </r>
       <r>    0.9718    1.0000 </r>
       <r>    1.4401    1.0000 </r>
       <r>    1.6680    1.0000 </r>
       <r>    1.7156    1.0000 </r>
       <r>    1.9532    1.0000 </r>
       <r>    2.1279    1.0000 </r>
       <r>    2.4450    1.0000 </r>
       <r>    2.8695    1.0000 </r>
       <r>    3.2907    1.0000 </r>
       <r>    3.4008    1.0000 </r>
       <r>    3.5747    1.0000 </r>
       <r>    4.0669    1.0000 </r>
       <r>    4.5258    1.0000 </r>
       <r>    5.0008    1.0000 </r>
       <r>    5.2009    1.0000 </r>
       <r>    5.2230    1.0000 </r>
       <r>    5.5109    1.0000 </r>
       <r>    5.8007    1.0000 </r>
       <r>    6.2155    1.0290 </r>
       <r>    6.2591    1.0477 </r>
       <r>    7.0889    0.0002 </r>
       <r>    9.7767    0.0000 </r>
       <r>   11.3118    0.0000 </r>
      </set>
      <set comment="kpoint 39">
       <r>   -0.2227    1.0000 </r>
       <r>    0.7763    1.0000 </r>
       <r>    1.6422    1.0000 </r>
       <r>    1.8540    1.0000 </r>
       <r>    1.8756    1.0000 </r>
       <r>    2.1791    1.0000 </r>
       <r>    2.2221    1.0000 </r>
       <r>    2.3003    1.0000 </r>
       <r>    2.5696    1.0000 </r>
       <r>    3.0831    1.0000 </r>
       <r>    3.2278    1.0000 </r>
       <r>    3.4789    1.0000 </r>
       <r>    4.2655    1.0000 </r>
       <r>    4.6139    1.0000 </r>
       <r>    4.8791    1.0000 </r>
       <r>    4.9535    1.0000 </r>
       <r>    5.0351    1.0000 </r>
       <r>    5.2470    1.0000 </r>
       <r>    6.0092    0.9967 </r>
       <r>    6.2123    1.0274 </r>
       <r>    6.2344    1.0380 </r>
       <r>    6.7655   -0.0141 </r>
       <r>   10.1327    0.0000 </r>
       <r>   11.0222    0.0000 </r>
      </set>
      <set comment="kpoint 40">
       <r>    0.1432    1.0000 </r>
       <r>    0.4879    1.0000 </r>
       <r>    1.8577    1.0000 </r>
       <r>    1.9895    1.0000 </r>
       <r>    2.0001    1.0000 </r>
       <r>    2.1503    1.0000 </r>
       <r>    2.2406    1.0000 </r>
       <r>    2.2497    1.0000 </r>
       <r>    2.5269    1.0000 </r>
       <r>    2.7829    1.0000 </r>
       <r>    3.2641    1.0000 </r>
       <r>    3.3620    1.0000 </r>
       <r>    4.4816    1.0000 </r>
       <r>    4.7117    1.0000 </r>
       <r>    4.7773    1.0000 </r>
       <r>    4.8395    1.0000 </r>
       <r>    4.8966    1.0000 </r>
       <r>    4.9957    1.0000 </r>
       <r>    6.2134    1.0280 </r>
       <r>    6.2202    1.0312 </r>
       <r>    6.2367    1.0390 </r>
       <r>    6.4861    0.4360 </r>
       <r>   10.4507    0.0000 </r>
       <r>   10.7415    0.0000 </r>
      </set>
      <set comment="kpoint 41">
       <r>   -0.9776    1.0000 </r>
       <r>    1.2082    1.0000 </r>
       <r>    1.2699    1.0000 </r>
       <r>    1.2699    1.0000 </r>
       <r>    1.6303    1.0000 </r>
       <r>    1.6303    1.0000 </r>
       <r>    1.9704    1.0000 </r>
       <r>    2.6423    1.0000 </r>
       <r>    3.3474    1.0000 </r>
       <r>    3.3474    1.0000 </r>
       <r>    3.6098    1.0000 </r>
       <r>    3.8237    1.0000 </r>
       <r>    3.8292    1.0000 </r>
       <r>    4.5193    1.0000 </r>
       <r>    5.2083    1.0000 </r>
       <r>    5.5059    1.0000 </r>
[...]
       <r>    7.0251    0.0009 </r>
       <r>    7.4405    0.0000 </r>
       <r>    7.4405    0.0000 </r>
       <r>    7.7585    0.0000 </r>
      </set>
      <set comment="kpoint 217">
       <r>    0.0883    1.0000 </r>
       <r>    0.2599    1.0000 </r>
       <r>    0.2599    1.0000 </r>
       <r>    0.2599    1.0000 </r>
       <r>    3.0653    1.0000 </r>
       <r>    3.0653    1.0000 </r>
       <r>    3.0653    1.0000 </r>
       <r>    3.2347    1.0000 </r>
       <r>    3.2347    1.0000 </r>
       <r>    3.3237    1.0000 </r>
       <r>    3.3237    1.0000 </r>
       <r>    3.3237    1.0000 </r>
       <r>    5.1807    1.0000 </r>
       <r>    5.1807    1.0000 </r>
       <r>    5.1807    1.0000 </r>
       <r>    5.4959    1.0000 </r>
       <r>    6.3308    1.0250 </r>
       <r>    6.3308    1.0250 </r>
       <r>    6.5140    0.2949 </r>
       <r>    6.5140    0.2949 </r>
       <r>    6.5140    0.2949 </r>
       <r>    7.7102    0.0000 </r>
       <r>    7.7102    0.0000 </r>
       <r>    7.7102    0.0000 </r>
      </set>
      <set comment="kpoint 218">
       <r>    0.1129    1.0000 </r>
       <r>    0.1702    1.0000 </r>
       <r>    0.2257    1.0000 </r>
       <r>    0.2257    1.0000 </r>
       <r>    3.0890    1.0000 </r>
       <r>    3.0890    1.0000 </r>
       <r>    3.1400    1.0000 </r>
       <r>    3.1971    1.0000 </r>
       <r>    3.2333    1.0000 </r>
       <r>    3.2632    1.0000 </r>
       <r>    3.2854    1.0000 </r>
       <r>    3.2854    1.0000 </r>
       <r>    5.3892    1.0000 </r>
       <r>    5.3892    1.0000 </r>
       <r>    5.4398    1.0000 </r>
       <r>    5.6153    1.0000 </r>
       <r>    6.4387    0.6825 </r>
       <r>    6.4884    0.4243 </r>
       <r>    6.4884    0.4243 </r>
       <r>    6.5006    0.3611 </r>
       <r>    6.5688    0.0764 </r>
       <r>    7.1038    0.0001 </r>
       <r>    7.6583    0.0000 </r>
       <r>    7.6583    0.0000 </r>
      </set>
      <set comment="kpoint 219">
       <r>    0.1160    1.0000 </r>
       <r>    0.1537    1.0000 </r>
       <r>    0.1537    1.0000 </r>
       <r>    0.1722    1.0000 </r>
       <r>    3.1309    1.0000 </r>
       <r>    3.1481    1.0000 </r>
       <r>    3.1481    1.0000 </r>
       <r>    3.1889    1.0000 </r>
       <r>    3.2104    1.0000 </r>
       <r>    3.2322    1.0000 </r>
       <r>    3.2322    1.0000 </r>
       <r>    3.2398    1.0000 </r>
       <r>    5.6487    1.0000 </r>
       <r>    5.6868    1.0000 </r>
       <r>    5.6868    1.0000 </r>
       <r>    5.8467    0.9998 </r>
       <r>    6.4129    0.8007 </r>
       <r>    6.4737    0.5018 </r>
       <r>    6.4737    0.5018 </r>
       <r>    6.4753    0.4932 </r>
       <r>    6.7490   -0.0212 </r>
       <r>    7.1599    0.0000 </r>
       <r>    7.1599    0.0000 </r>
       <r>    7.3664    0.0000 </r>
      </set>
      <set comment="kpoint 220">
       <r>    0.0988    1.0000 </r>
       <r>    0.1176    1.0000 </r>
       <r>    0.1176    1.0000 </r>
       <r>    0.1176    1.0000 </r>
       <r>    3.1693    1.0000 </r>
       <r>    3.1693    1.0000 </r>
       <r>    3.1693    1.0000 </r>
       <r>    3.1888    1.0000 </r>
       <r>    3.1888    1.0000 </r>
       <r>    3.1987    1.0000 </r>
       <r>    3.1987    1.0000 </r>
       <r>    3.1987    1.0000 </r>
       <r>    6.0400    0.9956 </r>
       <r>    6.0400    0.9956 </r>
       <r>    6.0400    0.9956 </r>
       <r>    6.3145    1.0409 </r>
       <r>    6.4830    0.4522 </r>
       <r>    6.4830    0.4522 </r>
       <r>    6.5041    0.3433 </r>
       <r>    6.5041    0.3433 </r>
       <r>    6.5041    0.3433 </r>
       <r>    6.9027    0.0046 </r>
       <r>    6.9027    0.0046 </r>
       <r>    6.9027    0.0046 </r>
      </set>
     </set>
    </set>
   </array>
  </eigenvalues>
  <separator name="orbital magnetization" >
   <v name="MAGDIPOLOUT">      0.00000000      0.00000000      0.00000000</v>
  </separator>
  <dos>
   <i name="efermi">      6.47399295 </i>
   <total>
    <array>
     <dimension dim="1">gridpoints</dimension>
     <dimension dim="2">spin</dimension>
     <field>energy</field>
     <field>total</field>
     <field>integrated</field>
     <set>
      <set comment="spin 1">
       <r>    -4.6485     0.0000     0.0000 </r>
       <r>    -4.5833     0.0000     0.0000 </r>
       <r>    -4.5182     0.0000     0.0000 </r>
       <r>    -4.4530     0.0000     0.0000 </r>
       <r>    -4.3879     0.0000     0.0000 </r>
       <r>    -4.3227     0.0000     0.0000 </r>
       <r>    -4.2576     0.0000     0.0000 </r>
       <r>    -4.1924     0.0000     0.0000 </r>
       <r>    -4.1273     0.0000     0.0000 </r>
       <r>    -4.0621     0.0000     0.0000 </r>
       <r>    -3.9970     0.0000     0.0000 </r>
       <r>    -3.9318     0.0000     0.0000 </r>
       <r>    -3.8667     0.0000     0.0000 </r>
       <r>    -3.8015     0.0000     0.0000 </r>
       <r>    -3.7364     0.0000     0.0000 </r>
       <r>    -3.6712     0.0000     0.0000 </r>
       <r>    -3.6061     0.0000     0.0000 </r>
       <r>    -3.5409     0.0000     0.0000 </r>
       <r>    -3.4758     0.0000     0.0000 </r>
       <r>    -3.4106     0.0000     0.0000 </r>
       <r>    -3.3455     0.0000     0.0000 </r>
       <r>    -3.2803     0.0000     0.0000 </r>
       <r>    -3.2152     0.0000     0.0000 </r>
       <r>    -3.1500     0.0001     0.0000 </r>
       <r>    -3.0849     0.0003     0.0000 </r>
       <r>    -3.0197     0.0005     0.0001 </r>
       <r>    -2.9546     0.0001     0.0001 </r>
       <r>    -2.8894    -0.0015    -0.0000 </r>
       <r>    -2.8243    -0.0038    -0.0003 </r>
       <r>    -2.7592    -0.0026    -0.0005 </r>
       <r>    -2.6940     0.0090     0.0001 </r>
       <r>    -2.6289     0.0348     0.0024 </r>
       <r>    -2.5637     0.0704     0.0070 </r>
       <r>    -2.4986     0.1060     0.0139 </r>
       <r>    -2.4334     0.1346     0.0227 </r>
       <r>    -2.3683     0.1568     0.0329 </r>
       <r>    -2.3031     0.1769     0.0444 </r>
       <r>    -2.2380     0.1945     0.0571 </r>
       <r>    -2.1728     0.2084     0.0707 </r>
       <r>    -2.1077     0.2231     0.0852 </r>
       <r>    -2.0425     0.2437     0.1011 </r>
       <r>    -1.9774     0.2640     0.1183 </r>
       <r>    -1.9122     0.2740     0.1361 </r>
       <r>    -1.8471     0.2785     0.1543 </r>
       <r>    -1.7819     0.2952     0.1735 </r>
       <r>    -1.7168     0.3263     0.1947 </r>
       <r>    -1.6516     0.3484     0.2174 </r>
       <r>    -1.5865     0.3473     0.2401 </r>
       <r>    -1.5213     0.3444     0.2625 </r>
       <r>    -1.4562     0.3659     0.2863 </r>
       <r>    -1.3910     0.4033     0.3126 </r>
       <r>    -1.3259     0.4297     0.3406 </r>
       <r>    -1.2607     0.4372     0.3691 </r>
       <r>    -1.1956     0.4360     0.3975 </r>
       <r>    -1.1304     0.4387     0.4261 </r>
       <r>    -1.0653     0.4608     0.4561 </r>
       <r>    -1.0001     0.5083     0.4892 </r>
       <r>    -0.9350     0.5544     0.5253 </r>
       <r>    -0.8698     0.5617     0.5619 </r>
       <r>    -0.8047     0.5385     0.5970 </r>
       <r>    -0.7395     0.5411     0.6323 </r>
       <r>    -0.6744     0.5992     0.6713 </r>
       <r>    -0.6092     0.6700     0.7150 </r>
       <r>    -0.5441     0.6987     0.7605 </r>
       <r>    -0.4789     0.6960     0.8058 </r>
       <r>    -0.4138     0.7141     0.8523 </r>
       <r>    -0.3486     0.7646     0.9022 </r>
       <r>    -0.2835     0.8175     0.9554 </r>
       <r>    -0.2183     0.8659     1.0118 </r>
       <r>    -0.1532     0.9275     1.0722 </r>
       <r>    -0.0880     1.0065     1.1378 </r>
       <r>    -0.0229     1.1262     1.2112 </r>
       <r>     0.0423     1.3605     1.2998 </r>
       <r>     0.1074     1.7334     1.4128 </r>
       <r>     0.1726     2.1144     1.5505 </r>
       <r>     0.2377     2.3282     1.7022 </r>
       <r>     0.3029     2.3772     1.8571 </r>
       <r>     0.3680     2.4495     2.0166 </r>
       <r>     0.4332     2.6933     2.1921 </r>
       <r>     0.4983     3.0787     2.3927 </r>
       <r>     0.5635     3.4931     2.6202 </r>
       <r>     0.6286     3.8704     2.8724 </r>
       <r>     0.6938     4.2017     3.1461 </r>
       <r>     0.7589     4.5153     3.4403 </r>
       <r>     0.8241     4.8726     3.7577 </r>
       <r>     0.8892     5.3105     4.1037 </r>
       <r>     0.9544     5.7742     4.4799 </r>
       <r>     1.0195     6.1448     4.8802 </r>
       <r>     1.0846     6.3351     5.2930 </r>
       <r>     1.1498     6.3509     5.7067 </r>
       <r>     1.2149     6.2540     6.1142 </r>
       <r>     1.2801     6.0952     6.5113 </r>
       <r>     1.3452     5.9203     6.8970 </r>
       <r>     1.4104     5.7767     7.2733 </r>
       <r>     1.4755     5.6779     7.6432 </r>
       <r>     1.5407     5.6229     8.0095 </r>
       <r>     1.6058     5.5895     8.3737 </r>
       <r>     1.6710     5.4794     8.7307 </r>
       <r>     1.7361     5.2052     9.0698 </r>
       <r>     1.8013     4.8012     9.3826 </r>
       <r>     1.8664     4.3584     9.6665 </r>
       <r>     1.9316     4.0053     9.9275 </r>
       <r>     1.9967     3.9766    10.1865 </r>
       <r>     2.0619     4.4277    10.4750 </r>
       <r>     2.1270     5.1397    10.8098 </r>
       <r>     2.1922     5.6768    11.1797 </r>
       <r>     2.2573     5.8713    11.5622 </r>
       <r>     2.3225     5.9276    11.9484 </r>
       <r>     2.3876     6.0554    12.3429 </r>
       <r>     2.4528     6.2382    12.7493 </r>
       <r>     2.5179     6.3643    13.1639 </r>
       <r>     2.5831     6.4041    13.5811 </r>
       <r>     2.6482     6.4497    14.0013 </r>
       <r>     2.7134     6.6086    14.4319 </r>
       <r>     2.7785     6.8245    14.8765 </r>
       <r>     2.8437     6.9160    15.3271 </r>
       <r>     2.9088     6.8594    15.7739 </r>
       <r>     2.9740     6.8778    16.2220 </r>
       <r>     3.0391     7.1542    16.6881 </r>
       <r>     3.1043     7.5826    17.1821 </r>
       <r>     3.1694     7.9155    17.6978 </r>
       <r>     3.2346     8.0884    18.2248 </r>
       <r>     3.2997     8.2928    18.7650 </r>
       <r>     3.3649     8.7778    19.3369 </r>
       <r>     3.4300     9.6389    19.9649 </r>
       <r>     3.4952    10.6573    20.6592 </r>
       <r>     3.5603    11.2626    21.3929 </r>
       <r>     3.6255    10.8802    22.1018 </r>
       <r>     3.6906     9.5219    22.7221 </r>
       <r>     3.7558     7.8927    23.2363 </r>
       <r>     3.8209     6.7423    23.6756 </r>
       <r>     3.8861     6.2256    24.0812 </r>
       <r>     3.9512     5.9984    24.4719 </r>
       <r>     4.0164     5.7410    24.8460 </r>
       <r>     4.0815     5.4143    25.1987 </r>
       <r>     4.1467     5.1471    25.5340 </r>
       <r>     4.2118     5.0438    25.8626 </r>
       <r>     4.2770     5.0814    26.1937 </r>
       <r>     4.3421     5.1688    26.5304 </r>
       <r>     4.4073     5.2987    26.8756 </r>
       <r>     4.4724     5.5332    27.2361 </r>
       <r>     4.5376     5.8441    27.6169 </r>
       <r>     4.6027     6.1409    28.0169 </r>
       <r>     4.6679     6.4533    28.4374 </r>
       <r>     4.7330     6.8795    28.8856 </r>
       <r>     4.7982     7.3296    29.3631 </r>
       <r>     4.8633     7.5099    29.8523 </r>
       <r>     4.9284     7.2347    30.3237 </r>
       <r>     4.9936     6.6450    30.7566 </r>
       <r>     5.0587     6.0850    31.1530 </r>
       <r>     5.1239     5.8115    31.5316 </r>
       <r>     5.1890     5.7977    31.9094 </r>
       <r>     5.2542     5.8017    32.2873 </r>
       <r>     5.3193     5.6505    32.6555 </r>
       <r>     5.3845     5.4081    33.0078 </r>
       <r>     5.4496     5.2396    33.3491 </r>
       <r>     5.5148     5.1995    33.6879 </r>
       <r>     5.5799     5.2012    34.0267 </r>
       <r>     5.6451     5.1584    34.3628 </r>
       <r>     5.7102     5.1182    34.6962 </r>
       <r>     5.7754     5.1939    35.0346 </r>
       <r>     5.8405     5.3794    35.3851 </r>
       <r>     5.9057     5.5460    35.7464 </r>
       <r>     5.9708     5.6103    36.1119 </r>
       <r>     6.0360     5.6378    36.4792 </r>
       <r>     6.1011     5.8294    36.8590 </r>
       <r>     6.1663     6.3857    37.2750 </r>
       <r>     6.2314     7.3026    37.7508 </r>
       <r>     6.2966     8.3650    38.2957 </r>
       <r>     6.3617     9.3118    38.9024 </r>
       <r>     6.4269     9.8363    39.5432 </r>
       <r>     6.4920     9.5892    40.1680 </r>
       <r>     6.5572     8.5205    40.7231 </r>
       <r>     6.6223     7.0900    41.1850 </r>
       <r>     6.6875     5.8314    41.5649 </r>
       <r>     6.7526     4.8190    41.8788 </r>
       <r>     6.8178     3.7700    42.1244 </r>
       <r>     6.8829     2.5978    42.2937 </r>
       <r>     6.9481     1.6595    42.4018 </r>
       <r>     7.0132     1.3362    42.4889 </r>
       <r>     7.0784     1.4766    42.5851 </r>
       <r>     7.1435     1.5236    42.6843 </r>
       <r>     7.2087     1.2024    42.7627 </r>
       <r>     7.2738     0.8192    42.8160 </r>
       <r>     7.3390     0.8046    42.8685 </r>
       <r>     7.4041     1.1606    42.9441 </r>
       <r>     7.4693     1.4817    43.0406 </r>
       <r>     7.5344     1.4529    43.1353 </r>
       <r>     7.5996     1.1881    43.2127 </r>
       <r>     7.6647     1.0170    43.2789 </r>
       <r>     7.7299     1.0695    43.3486 </r>
       <r>     7.7950     1.2067    43.4272 </r>
       <r>     7.8602     1.2667    43.5097 </r>
       <r>     7.9253     1.2275    43.5897 </r>
       <r>     7.9905     1.1650    43.6656 </r>
       <r>     8.0556     1.1493    43.7405 </r>
       <r>     8.1208     1.1812    43.8174 </r>
       <r>     8.1859     1.2009    43.8957 </r>
       <r>     8.2511     1.1592    43.9712 </r>
       <r>     8.3162     1.0864    44.0420 </r>
       <r>     8.3814     1.0763    44.1121 </r>
       <r>     8.4465     1.1865    44.1894 </r>
       <r>     8.5117     1.3452    44.2770 </r>
       <r>     8.5768     1.3936    44.3678 </r>
       <r>     8.6420     1.2557    44.4496 </r>
       <r>     8.7071     1.0425    44.5175 </r>
       <r>     8.7722     0.9476    44.5793 </r>
       <r>     8.8374     1.0479    44.6476 </r>
       <r>     8.9025     1.2289    44.7276 </r>
       <r>     8.9677     1.3036    44.8125 </r>
       <r>     9.0328     1.2081    44.8912 </r>
       <r>     9.0980     1.0717    44.9611 </r>
       <r>     9.1631     1.0664    45.0305 </r>
       <r>     9.2283     1.2030    45.1089 </r>
       <r>     9.2934     1.3217    45.1950 </r>
       <r>     9.3586     1.2772    45.2782 </r>
       <r>     9.4237     1.0922    45.3494 </r>
       <r>     9.4889     0.9213    45.4094 </r>
       <r>     9.5540     0.8908    45.4675 </r>
       <r>     9.6192     1.0006    45.5326 </r>
       <r>     9.6843     1.1588    45.6081 </r>
       <r>     9.7495     1.2628    45.6904 </r>
       <r>     9.8146     1.2542    45.7721 </r>
       <r>     9.8798     1.1476    45.8469 </r>
       <r>     9.9449     1.0196    45.9133 </r>
       <r>    10.0101     0.9470    45.9750 </r>
       <r>    10.0752     0.9539    46.0372 </r>
       <r>    10.1404     1.0121    46.1031 </r>
       <r>    10.2055     1.0721    46.1729 </r>
       <r>    10.2707     1.0914    46.2440 </r>
       <r>    10.3358     1.0548    46.3128 </r>
       <r>    10.4010     0.9883    46.3772 </r>
       <r>    10.4661     0.9405    46.4384 </r>
       <r>    10.5313     0.9287    46.4989 </r>
       <r>    10.5964     0.9316    46.5596 </r>
       <r>    10.6616     0.9465    46.6213 </r>
       <r>    10.7267     0.9944    46.6861 </r>
       <r>    10.7919     1.0526    46.7546 </r>
       <r>    10.8570     1.0502    46.8231 </r>
       <r>    10.9222     0.9559    46.8853 </r>
       <r>    10.9873     0.8266    46.9392 </r>
       <r>    11.0525     0.7517    46.9882 </r>
       <r>    11.1176     0.7749    47.0386 </r>
       <r>    11.1828     0.8739    47.0956 </r>
       <r>    11.2479     0.9762    47.1592 </r>
       <r>    11.3131     0.9914    47.2238 </r>
       <r>    11.3782     0.8961    47.2822 </r>
       <r>    11.4434     0.7945    47.3339 </r>
       <r>    11.5085     0.8148    47.3870 </r>
       <r>    11.5737     0.9326    47.4478 </r>
       <r>    11.6388     0.9860    47.5120 </r>
       <r>    11.7040     0.8894    47.5699 </r>
       <r>    11.7691     0.7345    47.6178 </r>
       <r>    11.8343     0.6430    47.6597 </r>
       <r>    11.8994     0.6184    47.7000 </r>
       <r>    11.9646     0.5949    47.7387 </r>
       <r>    12.0297     0.5521    47.7747 </r>
       <r>    12.0949     0.5140    47.8082 </r>
       <r>    12.1600     0.4791    47.8394 </r>
       <r>    12.2252     0.4209    47.8668 </r>
       <r>    12.2903     0.3396    47.8889 </r>
       <r>    12.3555     0.2617    47.9060 </r>
       <r>    12.4206     0.2069    47.9195 </r>
       <r>    12.4858     0.1880    47.9317 </r>
       <r>    12.5509     0.2028    47.9449 </r>
       <r>    12.6161     0.2100    47.9586 </r>
       <r>    12.6812     0.1700    47.9697 </r>
       <r>    12.7463     0.1092    47.9768 </r>
       <r>    12.8115     0.0855    47.9824 </r>
       <r>    12.8766     0.1005    47.9889 </r>
       <r>    12.9418     0.1020    47.9956 </r>
       <r>    13.0069     0.0653    47.9998 </r>
       <r>    13.0721     0.0185    48.0010 </r>
       <r>    13.1372    -0.0063    48.0006 </r>
       <r>    13.2024    -0.0082    48.0001 </r>
       <r>    13.2675    -0.0028    47.9999 </r>
       <r>    13.3327     0.0003    47.9999 </r>
       <r>    13.3978     0.0008    48.0000 </r>
       <r>    13.4630     0.0004    48.0000 </r>
       <r>    13.5281     0.0001    48.0000 </r>
       <r>    13.5933     0.0000    48.0000 </r>
       <r>    13.6584     0.0000    48.0000 </r>
       <r>    13.7236     0.0000    48.0000 </r>
       <r>    13.7887     0.0000    48.0000 </r>
       <r>    13.8539     0.0000    48.0000 </r>
       <r>    13.9190     0.0000    48.0000 </r>
       <r>    13.9842     0.0000    48.0000 </r>
       <r>    14.0493     0.0000    48.0000 </r>
       <r>    14.1145     0.0000    48.0000 </r>
       <r>    14.1796     0.0000    48.0000 </r>
       <r>    14.2448     0.0000    48.0000 </r>
       <r>    14.3099     0.0000    48.0000 </r>
       <r>    14.3751     0.0000    48.0000 </r>
       <r>    14.4402     0.0000    48.0000 </r>
       <r>    14.5054     0.0000    48.0000 </r>
       <r>    14.5705     0.0000    48.0000 </r>
       <r>    14.6357     0.0000    48.0000 </r>
       <r>    14.7008     0.0000    48.0000 </r>
       <r>    14.7660     0.0000    48.0000 </r>
       <r>    14.8311     0.0000    48.0000 </r>
       <r>    14.8963     0.0000    48.0000 </r>
      </set>
     </set>
    </array>
   </total>
  </dos>
 </calculation>
 <structure name="finalpos" >
  <crystal>
   <varray name="basis" >
    <v>       4.05000000       0.00000000       0.00000000 </v>
    <v>       0.00000000       4.05000000       0.00000000 </v>
    <v>       0.00000000       0.00000000       4.05000000 </v>
   </varray>
   <i name="volume">     66.43012500 </i>
   <varray name="rec_basis" >
    <v>       0.24691358       0.00000000       0.00000000 </v>
    <v>       0.00000000       0.24691358       0.00000000 </v>
    <v>       0.00000000       0.00000000       0.24691358 </v>
   </varray>
  </crystal>
  <varray name="positions" >
   <v>       0.00000000       0.00000000       0.00000000 </v>
   <v>       0.00000000       0.50000000       0.50000000 </v>
   <v>       0.50000000       0.00000000       0.50000000 </v>
   <v>       0.50000000       0.50000000       0.00000000 </v>
  </varray>
 </structure>
</modeling>
