<?xml version="1.0" encoding="ISO-8859-1"?>
<modeling>
 <generator>
  <i name="program" type="string">vasp </i>
  <i name="version" type="string">5.4.4.18Apr17-6-g9f103f2a35  </i>
  <i name="subversion" type="string">(build Apr 17 2018 18:25:23) complex            parallel </i>
  <i name="platform" type="string">LinuxIFC </i>
  <i name="date" type="string">2019 01 22 </i>
  <i name="time" type="string">15:09:47 </i>
 </generator>
 <incar>
  <i type="string" name="SYSTEM"> Pt bulk calculation</i>
  <i type="int" name="ISTART">     0</i>
  <i type="string" name="PREC">normal</i>
  <i type="string" name="ALGO"> NORMAL</i>
  <i type="int" name="ICHARG">     2</i>
  <i type="int" name="INIWAV">     1</i>
  <i type="int" name="NELMIN">    10</i>
  <i type="int" name="IBRION">     2</i>
  <i name="EDIFF">      0.00000100</i>
  <i name="EDIFFG">     -0.02000000</i>
  <i type="int" name="NSW">    10</i>
  <i name="ENCUT">    450.00000000</i>
  <i name="POTIM">      0.20000000</i>
  <i type="int" name="ISMEAR">     2</i>
  <i name="SIGMA">      0.20000000</i>
  <v type="int" name="KPOINT_BSE">    -1     0     0     0</v>
  <i type="string" name="GGA"> 91</i>
 </incar>
 <structure name="primitive_cell" >
  <crystal>
   <varray name="basis" >
    <v>       1.93000000       1.93000000      -0.00000000 </v>
    <v>       1.93000000       0.00000000      -1.93000000 </v>
    <v>       0.00000000       1.93000000      -1.93000000 </v>
   </varray>
   <i name="volume">     14.37811400 </i>
   <varray name="rec_basis" >
    <v>       0.25906736       0.25906736       0.25906736 </v>
    <v>       0.25906736      -0.25906736      -0.25906736 </v>
    <v>      -0.25906736       0.25906736      -0.25906736 </v>
   </varray>
  </crystal>
  <varray name="positions" >
   <v>       0.00000000       0.00000000       0.00000000 </v>
  </varray>
 </structure>
 <varray name="primitive_index" >
  <v type="int" >        1 </v>
 </varray>
 <kpoints>
  <generation param="Monkhorst-Pack">
   <v type="int" name="divisions">      20       20       20 </v>
   <v name="usershift">      0.00000000       0.00000000       0.00000000 </v>
   <v name="genvec1">      0.05000000       0.00000000       0.00000000 </v>
   <v name="genvec2">      0.00000000       0.05000000       0.00000000 </v>
   <v name="genvec3">      0.00000000       0.00000000       0.05000000 </v>
   <v name="shift">      0.50000000       0.50000000       0.50000000 </v>
  </generation>
  <varray name="kpointlist" >
   <v>       0.02500000       0.02500000       0.02500000 </v>
   <v>       0.07500000       0.02500000       0.02500000 </v>
   <v>       0.12500000       0.02500000       0.02500000 </v>
   <v>       0.17500000       0.02500000       0.02500000 </v>
   <v>       0.22500000       0.02500000       0.02500000 </v>
   <v>       0.27500000       0.02500000       0.02500000 </v>
   <v>       0.32500000       0.02500000       0.02500000 </v>
   <v>       0.37500000       0.02500000       0.02500000 </v>
   <v>       0.42500000       0.02500000       0.02500000 </v>
   <v>       0.47500000       0.02500000       0.02500000 </v>
   <v>       0.07500000       0.07500000       0.02500000 </v>
   <v>       0.12500000       0.07500000       0.02500000 </v>
   <v>       0.17500000       0.07500000       0.02500000 </v>
   <v>       0.22500000       0.07500000       0.02500000 </v>
   <v>       0.27500000       0.07500000       0.02500000 </v>
   <v>       0.32500000       0.07500000       0.02500000 </v>
   <v>       0.37500000       0.07500000       0.02500000 </v>
   <v>       0.42500000       0.07500000       0.02500000 </v>
   <v>       0.47500000       0.07500000       0.02500000 </v>
   <v>       0.12500000       0.12500000       0.02500000 </v>
   <v>       0.17500000       0.12500000       0.02500000 </v>
   <v>       0.22500000       0.12500000       0.02500000 </v>
   <v>       0.27500000       0.12500000       0.02500000 </v>
   <v>       0.32500000       0.12500000       0.02500000 </v>
   <v>       0.37500000       0.12500000       0.02500000 </v>
   <v>       0.42500000       0.12500000       0.02500000 </v>
   <v>       0.47500000       0.12500000       0.02500000 </v>
   <v>       0.17500000       0.17500000       0.02500000 </v>
   <v>       0.22500000       0.17500000       0.02500000 </v>
   <v>       0.27500000       0.17500000       0.02500000 </v>
   <v>       0.32500000       0.17500000       0.02500000 </v>
   <v>       0.37500000       0.17500000       0.02500000 </v>
   <v>       0.42500000       0.17500000       0.02500000 </v>
   <v>       0.47500000       0.17500000       0.02500000 </v>
   <v>       0.22500000       0.22500000       0.02500000 </v>
   <v>       0.27500000       0.22500000       0.02500000 </v>
   <v>       0.32500000       0.22500000       0.02500000 </v>
   <v>       0.37500000       0.22500000       0.02500000 </v>
   <v>       0.42500000       0.22500000       0.02500000 </v>
   <v>       0.47500000       0.22500000       0.02500000 </v>
   <v>       0.27500000       0.27500000       0.02500000 </v>
   <v>       0.32500000       0.27500000       0.02500000 </v>
   <v>       0.37500000       0.27500000       0.02500000 </v>
   <v>       0.42500000       0.27500000       0.02500000 </v>
   <v>       0.47500000       0.27500000       0.02500000 </v>
   <v>       0.32500000       0.32500000       0.02500000 </v>
   <v>       0.37500000       0.32500000       0.02500000 </v>
   <v>       0.42500000       0.32500000       0.02500000 </v>
   <v>       0.47500000       0.32500000       0.02500000 </v>
   <v>       0.37500000       0.37500000       0.02500000 </v>
   <v>       0.42500000       0.37500000       0.02500000 </v>
   <v>       0.47500000       0.37500000       0.02500000 </v>
   <v>       0.42500000       0.42500000       0.02500000 </v>
   <v>       0.47500000       0.42500000       0.02500000 </v>
   <v>       0.47500000       0.47500000       0.02500000 </v>
   <v>       0.07500000       0.07500000       0.07500000 </v>
   <v>       0.12500000       0.07500000       0.07500000 </v>
   <v>       0.17500000       0.07500000       0.07500000 </v>
   <v>       0.22500000       0.07500000       0.07500000 </v>
   <v>       0.27500000       0.07500000       0.07500000 </v>
   <v>       0.32500000       0.07500000       0.07500000 </v>
   <v>       0.37500000       0.07500000       0.07500000 </v>
   <v>       0.42500000       0.07500000       0.07500000 </v>
   <v>       0.47500000       0.07500000       0.07500000 </v>
   <v>       0.12500000       0.12500000       0.07500000 </v>
   <v>       0.17500000       0.12500000       0.07500000 </v>
   <v>       0.22500000       0.12500000       0.07500000 </v>
   <v>       0.27500000       0.12500000       0.07500000 </v>
   <v>       0.32500000       0.12500000       0.07500000 </v>
   <v>       0.37500000       0.12500000       0.07500000 </v>
   <v>       0.42500000       0.12500000       0.07500000 </v>
   <v>       0.47500000       0.12500000       0.07500000 </v>
   <v>       0.17500000       0.17500000       0.07500000 </v>
   <v>       0.22500000       0.17500000       0.07500000 </v>
   <v>       0.27500000       0.17500000       0.07500000 </v>
   <v>       0.32500000       0.17500000       0.07500000 </v>
   <v>       0.37500000       0.17500000       0.07500000 </v>
   <v>       0.42500000       0.17500000       0.07500000 </v>
   <v>       0.47500000       0.17500000       0.07500000 </v>
   <v>       0.22500000       0.22500000       0.07500000 </v>
   <v>       0.27500000       0.22500000       0.07500000 </v>
   <v>       0.32500000       0.22500000       0.07500000 </v>
   <v>       0.37500000       0.22500000       0.07500000 </v>
   <v>       0.42500000       0.22500000       0.07500000 </v>
   <v>       0.47500000       0.22500000       0.07500000 </v>
   <v>       0.27500000       0.27500000       0.07500000 </v>
   <v>       0.32500000       0.27500000       0.07500000 </v>
   <v>       0.37500000       0.27500000       0.07500000 </v>
   <v>       0.42500000       0.27500000       0.07500000 </v>
   <v>       0.47500000       0.27500000       0.07500000 </v>
   <v>       0.32500000       0.32500000       0.07500000 </v>
   <v>       0.37500000       0.32500000       0.07500000 </v>
   <v>       0.42500000       0.32500000       0.07500000 </v>
   <v>       0.47500000       0.32500000       0.07500000 </v>
   <v>       0.37500000       0.37500000       0.07500000 </v>
   <v>       0.42500000       0.37500000       0.07500000 </v>
   <v>       0.47500000       0.37500000       0.07500000 </v>
   <v>       0.42500000       0.42500000       0.07500000 </v>
   <v>       0.47500000       0.42500000       0.07500000 </v>
   <v>       0.47500000       0.47500000       0.07500000 </v>
   <v>       0.12500000       0.12500000       0.12500000 </v>
   <v>       0.17500000       0.12500000       0.12500000 </v>
   <v>       0.22500000       0.12500000       0.12500000 </v>
   <v>       0.27500000       0.12500000       0.12500000 </v>
   <v>       0.32500000       0.12500000       0.12500000 </v>
   <v>       0.37500000       0.12500000       0.12500000 </v>
   <v>       0.42500000       0.12500000       0.12500000 </v>
   <v>       0.47500000       0.12500000       0.12500000 </v>
   <v>       0.17500000       0.17500000       0.12500000 </v>
   <v>       0.22500000       0.17500000       0.12500000 </v>
   <v>       0.27500000       0.17500000       0.12500000 </v>
   <v>       0.32500000       0.17500000       0.12500000 </v>
   <v>       0.37500000       0.17500000       0.12500000 </v>
   <v>       0.42500000       0.17500000       0.12500000 </v>
   <v>       0.47500000       0.17500000       0.12500000 </v>
   <v>       0.22500000       0.22500000       0.12500000 </v>
   <v>       0.27500000       0.22500000       0.12500000 </v>
   <v>       0.32500000       0.22500000       0.12500000 </v>
   <v>       0.37500000       0.22500000       0.12500000 </v>
   <v>       0.42500000       0.22500000       0.12500000 </v>
   <v>       0.47500000       0.22500000       0.12500000 </v>
   <v>       0.27500000       0.27500000       0.12500000 </v>
   <v>       0.32500000       0.27500000       0.12500000 </v>
   <v>       0.37500000       0.27500000       0.12500000 </v>
   <v>       0.42500000       0.27500000       0.12500000 </v>
   <v>       0.47500000       0.27500000       0.12500000 </v>
   <v>       0.32500000       0.32500000       0.12500000 </v>
   <v>       0.37500000       0.32500000       0.12500000 </v>
   <v>       0.42500000       0.32500000       0.12500000 </v>
   <v>       0.47500000       0.32500000       0.12500000 </v>
   <v>       0.37500000       0.37500000       0.12500000 </v>
   <v>       0.42500000       0.37500000       0.12500000 </v>
   <v>       0.47500000       0.37500000       0.12500000 </v>
   <v>       0.42500000       0.42500000       0.12500000 </v>
   <v>       0.47500000       0.42500000       0.12500000 </v>
   <v>       0.47500000       0.47500000       0.12500000 </v>
   <v>       0.17500000       0.17500000       0.17500000 </v>
   <v>       0.22500000       0.17500000       0.17500000 </v>
   <v>       0.27500000       0.17500000       0.17500000 </v>
   <v>       0.32500000       0.17500000       0.17500000 </v>
   <v>       0.37500000       0.17500000       0.17500000 </v>
   <v>       0.42500000       0.17500000       0.17500000 </v>
   <v>       0.47500000       0.17500000       0.17500000 </v>
   <v>       0.22500000       0.22500000       0.17500000 </v>
   <v>       0.27500000       0.22500000       0.17500000 </v>
   <v>       0.32500000       0.22500000       0.17500000 </v>
   <v>       0.37500000       0.22500000       0.17500000 </v>
   <v>       0.42500000       0.22500000       0.17500000 </v>
   <v>       0.47500000       0.22500000       0.17500000 </v>
   <v>       0.27500000       0.27500000       0.17500000 </v>
   <v>       0.32500000       0.27500000       0.17500000 </v>
   <v>       0.37500000       0.27500000       0.17500000 </v>
   <v>       0.42500000       0.27500000       0.17500000 </v>
   <v>       0.47500000       0.27500000       0.17500000 </v>
   <v>       0.32500000       0.32500000       0.17500000 </v>
   <v>       0.37500000       0.32500000       0.17500000 </v>
   <v>       0.42500000       0.32500000       0.17500000 </v>
   <v>       0.47500000       0.32500000       0.17500000 </v>
   <v>       0.37500000       0.37500000       0.17500000 </v>
   <v>       0.42500000       0.37500000       0.17500000 </v>
   <v>       0.47500000       0.37500000       0.17500000 </v>
   <v>       0.42500000       0.42500000       0.17500000 </v>
   <v>       0.47500000       0.42500000       0.17500000 </v>
   <v>       0.47500000       0.47500000       0.17500000 </v>
   <v>       0.22500000       0.22500000       0.22500000 </v>
   <v>       0.27500000       0.22500000       0.22500000 </v>
   <v>       0.32500000       0.22500000       0.22500000 </v>
   <v>       0.37500000       0.22500000       0.22500000 </v>
   <v>       0.42500000       0.22500000       0.22500000 </v>
   <v>       0.47500000       0.22500000       0.22500000 </v>
   <v>       0.27500000       0.27500000       0.22500000 </v>
   <v>       0.32500000       0.27500000       0.22500000 </v>
   <v>       0.37500000       0.27500000       0.22500000 </v>
   <v>       0.42500000       0.27500000       0.22500000 </v>
   <v>       0.47500000       0.27500000       0.22500000 </v>
   <v>       0.32500000       0.32500000       0.22500000 </v>
   <v>       0.37500000       0.32500000       0.22500000 </v>
   <v>       0.42500000       0.32500000       0.22500000 </v>
   <v>       0.47500000       0.32500000       0.22500000 </v>
   <v>       0.37500000       0.37500000       0.22500000 </v>
   <v>       0.42500000       0.37500000       0.22500000 </v>
   <v>       0.47500000       0.37500000       0.22500000 </v>
   <v>       0.42500000       0.42500000       0.22500000 </v>
   <v>       0.47500000       0.42500000       0.22500000 </v>
   <v>       0.47500000       0.47500000       0.22500000 </v>
   <v>       0.27500000       0.27500000       0.27500000 </v>
   <v>       0.32500000       0.27500000       0.27500000 </v>
   <v>       0.37500000       0.27500000       0.27500000 </v>
   <v>       0.42500000       0.27500000       0.27500000 </v>
   <v>       0.47500000       0.27500000       0.27500000 </v>
   <v>       0.32500000       0.32500000       0.27500000 </v>
   <v>       0.37500000       0.32500000       0.27500000 </v>
   <v>       0.42500000       0.32500000       0.27500000 </v>
   <v>       0.47500000       0.32500000       0.27500000 </v>
   <v>       0.37500000       0.37500000       0.27500000 </v>
   <v>       0.42500000       0.37500000       0.27500000 </v>
   <v>       0.47500000       0.37500000       0.27500000 </v>
   <v>       0.42500000       0.42500000       0.27500000 </v>
   <v>       0.47500000       0.42500000       0.27500000 </v>
   <v>       0.47500000       0.47500000       0.27500000 </v>
   <v>       0.32500000       0.32500000       0.32500000 </v>
   <v>       0.37500000       0.32500000       0.32500000 </v>
   <v>       0.42500000       0.32500000       0.32500000 </v>
   <v>       0.47500000       0.32500000       0.32500000 </v>
   <v>       0.37500000       0.37500000       0.32500000 </v>
   <v>       0.42500000       0.37500000       0.32500000 </v>
   <v>       0.47500000       0.37500000       0.32500000 </v>
   <v>       0.42500000       0.42500000       0.32500000 </v>
   <v>       0.47500000       0.42500000       0.32500000 </v>
   <v>       0.47500000       0.47500000       0.32500000 </v>
   <v>       0.37500000       0.37500000       0.37500000 </v>
   <v>       0.42500000       0.37500000       0.37500000 </v>
   <v>       0.47500000       0.37500000       0.37500000 </v>
   <v>       0.42500000       0.42500000       0.37500000 </v>
   <v>       0.47500000       0.42500000       0.37500000 </v>
   <v>       0.47500000       0.47500000       0.37500000 </v>
   <v>       0.42500000       0.42500000       0.42500000 </v>
   <v>       0.47500000       0.42500000       0.42500000 </v>
   <v>       0.47500000       0.47500000       0.42500000 </v>
   <v>       0.47500000       0.47500000       0.47500000 </v>
  </varray>
  <varray name="weights" >
   <v>       0.00100000 </v>
   <v>       0.00300000 </v>
   <v>       0.00300000 </v>
   <v>       0.00300000 </v>
   <v>       0.00300000 </v>
   <v>       0.00300000 </v>
   <v>       0.00300000 </v>
   <v>       0.00300000 </v>
   <v>       0.00300000 </v>
   <v>       0.00300000 </v>
   <v>       0.00300000 </v>
   <v>       0.00600000 </v>
   <v>       0.00600000 </v>
   <v>       0.00600000 </v>
   <v>       0.00600000 </v>
   <v>       0.00600000 </v>
   <v>       0.00600000 </v>
   <v>       0.00600000 </v>
   <v>       0.00600000 </v>
   <v>       0.00300000 </v>
   <v>       0.00600000 </v>
   <v>       0.00600000 </v>
   <v>       0.00600000 </v>
   <v>       0.00600000 </v>
   <v>       0.00600000 </v>
   <v>       0.00600000 </v>
   <v>       0.00600000 </v>
   <v>       0.00300000 </v>
   <v>       0.00600000 </v>
   <v>       0.00600000 </v>
   <v>       0.00600000 </v>
   <v>       0.00600000 </v>
   <v>       0.00600000 </v>
   <v>       0.00600000 </v>
   <v>       0.00300000 </v>
   <v>       0.00600000 </v>
   <v>       0.00600000 </v>
   <v>       0.00600000 </v>
   <v>       0.00600000 </v>
   <v>       0.00600000 </v>
   <v>       0.00300000 </v>
   <v>       0.00600000 </v>
   <v>       0.00600000 </v>
   <v>       0.00600000 </v>
   <v>       0.00600000 </v>
   <v>       0.00300000 </v>
   <v>       0.00600000 </v>
   <v>       0.00600000 </v>
   <v>       0.00600000 </v>
   <v>       0.00300000 </v>
   <v>       0.00600000 </v>
   <v>       0.00600000 </v>
   <v>       0.00300000 </v>
   <v>       0.00600000 </v>
   <v>       0.00300000 </v>
   <v>       0.00100000 </v>
   <v>       0.00300000 </v>
   <v>       0.00300000 </v>
   <v>       0.00300000 </v>
   <v>       0.00300000 </v>
   <v>       0.00300000 </v>
   <v>       0.00300000 </v>
   <v>       0.00300000 </v>
   <v>       0.00300000 </v>
   <v>       0.00300000 </v>
   <v>       0.00600000 </v>
   <v>       0.00600000 </v>
   <v>       0.00600000 </v>
   <v>       0.00600000 </v>
   <v>       0.00600000 </v>
   <v>       0.00600000 </v>
   <v>       0.00600000 </v>
   <v>       0.00300000 </v>
   <v>       0.00600000 </v>
   <v>       0.00600000 </v>
   <v>       0.00600000 </v>
   <v>       0.00600000 </v>
   <v>       0.00600000 </v>
   <v>       0.00600000 </v>
   <v>       0.00300000 </v>
   <v>       0.00600000 </v>
   <v>       0.00600000 </v>
   <v>       0.00600000 </v>
   <v>       0.00600000 </v>
   <v>       0.00600000 </v>
   <v>       0.00300000 </v>
   <v>       0.00600000 </v>
   <v>       0.00600000 </v>
   <v>       0.00600000 </v>
   <v>       0.00600000 </v>
   <v>       0.00300000 </v>
   <v>       0.00600000 </v>
   <v>       0.00600000 </v>
   <v>       0.00600000 </v>
   <v>       0.00300000 </v>
   <v>       0.00600000 </v>
   <v>       0.00600000 </v>
   <v>       0.00300000 </v>
   <v>       0.00600000 </v>
   <v>       0.00300000 </v>
   <v>       0.00100000 </v>
   <v>       0.00300000 </v>
   <v>       0.00300000 </v>
   <v>       0.00300000 </v>
   <v>       0.00300000 </v>
   <v>       0.00300000 </v>
   <v>       0.00300000 </v>
   <v>       0.00300000 </v>
   <v>       0.00300000 </v>
   <v>       0.00600000 </v>
   <v>       0.00600000 </v>
   <v>       0.00600000 </v>
   <v>       0.00600000 </v>
   <v>       0.00600000 </v>
   <v>       0.00600000 </v>
   <v>       0.00300000 </v>
   <v>       0.00600000 </v>
   <v>       0.00600000 </v>
   <v>       0.00600000 </v>
   <v>       0.00600000 </v>
   <v>       0.00600000 </v>
   <v>       0.00300000 </v>
   <v>       0.00600000 </v>
   <v>       0.00600000 </v>
   <v>       0.00600000 </v>
   <v>       0.00600000 </v>
   <v>       0.00300000 </v>
   <v>       0.00600000 </v>
   <v>       0.00600000 </v>
   <v>       0.00600000 </v>
   <v>       0.00300000 </v>
   <v>       0.00600000 </v>
   <v>       0.00600000 </v>
   <v>       0.00300000 </v>
   <v>       0.00600000 </v>
   <v>       0.00300000 </v>
   <v>       0.00100000 </v>
   <v>       0.00300000 </v>
   <v>       0.00300000 </v>
   <v>       0.00300000 </v>
   <v>       0.00300000 </v>
   <v>       0.00300000 </v>
   <v>       0.00300000 </v>
   <v>       0.00300000 </v>
   <v>       0.00600000 </v>
   <v>       0.00600000 </v>
   <v>       0.00600000 </v>
   <v>       0.00600000 </v>
   <v>       0.00600000 </v>
   <v>       0.00300000 </v>
   <v>       0.00600000 </v>
   <v>       0.00600000 </v>
   <v>       0.00600000 </v>
   <v>       0.00600000 </v>
   <v>       0.00300000 </v>
   <v>       0.00600000 </v>
   <v>       0.00600000 </v>
   <v>       0.00600000 </v>
   <v>       0.00300000 </v>
   <v>       0.00600000 </v>
   <v>       0.00600000 </v>
   <v>       0.00300000 </v>
   <v>       0.00600000 </v>
   <v>       0.00300000 </v>
   <v>       0.00100000 </v>
   <v>       0.00300000 </v>
   <v>       0.00300000 </v>
   <v>       0.00300000 </v>
   <v>       0.00300000 </v>
   <v>       0.00300000 </v>
   <v>       0.00300000 </v>
   <v>       0.00600000 </v>
   <v>       0.00600000 </v>
   <v>       0.00600000 </v>
   <v>       0.00600000 </v>
   <v>       0.00300000 </v>
   <v>       0.00600000 </v>
   <v>       0.00600000 </v>
   <v>       0.00600000 </v>
   <v>       0.00300000 </v>
   <v>       0.00600000 </v>
   <v>       0.00600000 </v>
   <v>       0.00300000 </v>
   <v>       0.00600000 </v>
   <v>       0.00300000 </v>
   <v>       0.00100000 </v>
   <v>       0.00300000 </v>
   <v>       0.00300000 </v>
   <v>       0.00300000 </v>
   <v>       0.00300000 </v>
   <v>       0.00300000 </v>
   <v>       0.00600000 </v>
   <v>       0.00600000 </v>
   <v>       0.00600000 </v>
   <v>       0.00300000 </v>
   <v>       0.00600000 </v>
   <v>       0.00600000 </v>
   <v>       0.00300000 </v>
   <v>       0.00600000 </v>
   <v>       0.00300000 </v>
   <v>       0.00100000 </v>
   <v>       0.00300000 </v>
   <v>       0.00300000 </v>
   <v>       0.00300000 </v>
   <v>       0.00300000 </v>
   <v>       0.00600000 </v>
   <v>       0.00600000 </v>
   <v>       0.00300000 </v>
   <v>       0.00600000 </v>
   <v>       0.00300000 </v>
   <v>       0.00100000 </v>
   <v>       0.00300000 </v>
   <v>       0.00300000 </v>
   <v>       0.00300000 </v>
   <v>       0.00600000 </v>
   <v>       0.00300000 </v>
   <v>       0.00100000 </v>
   <v>       0.00300000 </v>
   <v>       0.00300000 </v>
   <v>       0.00100000 </v>
  </varray>
 </kpoints>
 <parameters>
  <separator name="general" >
   <i type="string" name="SYSTEM">Pt bulk calculation</i>
   <i type="logical" name="LCOMPAT"> F  </i>
  </separator>
  <separator name="electronic" >
   <i type="string" name="PREC">normal</i>
   <i name="ENMAX">    450.00000000</i>
   <i name="ENAUG">    358.96600000</i>
   <i name="EDIFF">      0.00000100</i>
   <i type="int" name="IALGO">    38</i>
   <i type="int" name="IWAVPR">    11</i>
   <i type="int" name="NBANDS">    24</i>
   <i name="NELECT">     40.00000000</i>
   <i type="int" name="TURBO">     0</i>
   <i type="int" name="IRESTART">     0</i>
   <i type="int" name="NREBOOT">     0</i>
   <i type="int" name="NMIN">     0</i>
   <i name="EREF">      0.00000000</i>
   <separator name="electronic smearing" >
    <i type="int" name="ISMEAR">     2</i>
    <i name="SIGMA">      0.20000000</i>
    <i name="KSPACING">      0.50000000</i>
    <i type="logical" name="KGAMMA"> T  </i>
   </separator>
   <separator name="electronic projectors" >
    <i type="logical" name="LREAL"> F  </i>
    <v name="ROPT">      0.00000000</v>
    <i type="int" name="LMAXPAW">  -100</i>
    <i type="int" name="LMAXMIX">     2</i>
    <i type="logical" name="NLSPLINE"> F  </i>
   </separator>
   <separator name="electronic startup" >
    <i type="int" name="ISTART">     0</i>
    <i type="int" name="ICHARG">     2</i>
    <i type="int" name="INIWAV">     1</i>
   </separator>
   <separator name="electronic spin" >
    <i type="int" name="ISPIN">     1</i>
    <i type="logical" name="LNONCOLLINEAR"> F  </i>
    <v name="MAGMOM">      1.00000000      1.00000000      1.00000000      1.00000000</v>
    <i name="NUPDOWN">     -1.00000000</i>
    <i type="logical" name="LSORBIT"> F  </i>
    <v name="SAXIS">      0.00000000      0.00000000      1.00000000</v>
    <i type="logical" name="LSPIRAL"> F  </i>
    <v name="QSPIRAL">      0.00000000      0.00000000      0.00000000</v>
    <i type="logical" name="LZEROZ"> F  </i>
   </separator>
   <separator name="electronic exchange-correlation" >
    <i type="logical" name="LASPH"> F  </i>
    <i type="logical" name="LMETAGGA"> F  </i>
   </separator>
   <separator name="electronic convergence" >
    <i type="int" name="NELM">    60</i>
    <i type="int" name="NELMDL">    -5</i>
    <i type="int" name="NELMIN">    10</i>
    <i name="ENINI">    450.00000000</i>
    <separator name="electronic convergence detail" >
     <i type="logical" name="LDIAG"> T  </i>
     <i type="logical" name="LSUBROT"> F  </i>
     <i name="WEIMIN">      0.00100000</i>
     <i name="EBREAK">      0.00000001</i>
     <i name="DEPER">      0.30000000</i>
     <i type="int" name="NRMM">     4</i>
     <i name="TIME">      0.40000000</i>
    </separator>
   </separator>
   <separator name="electronic mixer" >
    <i name="AMIX">      0.40000000</i>
    <i name="BMIX">      1.00000000</i>
    <i name="AMIN">      0.10000000</i>
    <i name="AMIX_MAG">      1.60000000</i>
    <i name="BMIX_MAG">      1.00000000</i>
    <separator name="electronic mixer details" >
     <i type="int" name="IMIX">     4</i>
     <i type="logical" name="MIXFIRST"> F  </i>
     <i type="int" name="MAXMIX">   -45</i>
     <i name="WC">    100.00000000</i>
     <i type="int" name="INIMIX">     1</i>
     <i type="int" name="MIXPRE">     1</i>
     <i type="int" name="MREMOVE">     5</i>
    </separator>
   </separator>
   <separator name="electronic dipolcorrection" >
    <i type="logical" name="LDIPOL"> F  </i>
    <i type="logical" name="LMONO"> F  </i>
    <i type="int" name="IDIPOL">     0</i>
    <i name="EPSILON">      1.00000000</i>
    <v name="DIPOL">   -100.00000000   -100.00000000   -100.00000000</v>
    <i name="EFIELD">      0.00000000</i>
   </separator>
  </separator>
  <separator name="grids" >
   <i type="int" name="NGX">    20</i>
   <i type="int" name="NGY">    20</i>
   <i type="int" name="NGZ">    20</i>
   <i type="int" name="NGXF">    40</i>
   <i type="int" name="NGYF">    40</i>
   <i type="int" name="NGZF">    40</i>
   <i type="logical" name="ADDGRID"> F  </i>
  </separator>
  <separator name="ionic" >
   <i type="int" name="NSW">    10</i>
   <i type="int" name="IBRION">     2</i>
   <i type="int" name="MDALGO">     0</i>
   <i type="int" name="ISIF">     2</i>
   <i name="PSTRESS">      0.00000000</i>
   <i name="EDIFFG">     -0.02000000</i>
   <i type="int" name="NFREE">     1</i>
   <i name="POTIM">      0.20000000</i>
   <i name="SMASS">     -3.00000000</i>
   <i name="SCALEE">      1.00000000</i>
  </separator>
  <separator name="ionic md" >
   <i name="TEBEG">      0.00010000</i>
   <i name="TEEND">      0.00010000</i>
   <i type="int" name="NBLOCK">     1</i>
   <i type="int" name="KBLOCK">    10</i>
   <i type="int" name="NPACO">   256</i>
   <i name="APACO">     16.00000000</i>
  </separator>
  <separator name="symmetry" >
   <i type="int" name="ISYM">     2</i>
   <i name="SYMPREC">      0.00001000</i>
  </separator>
  <separator name="dos" >
   <i type="int" name="LORBIT">     0</i>
   <v name="RWIGS">     -1.00000000</v>
   <i type="int" name="NEDOS">   301</i>
   <i name="EMIN">     10.00000000</i>
   <i name="EMAX">    -10.00000000</i>
   <i name="EFERMI">      0.00000000</i>
  </separator>
  <separator name="writing" >
   <i type="int" name="NWRITE">     2</i>
   <i type="logical" name="LWAVE"> T  </i>
   <i type="logical" name="LDOWNSAMPLE"> F  </i>
   <i type="logical" name="LCHARG"> T  </i>
   <i type="logical" name="LPARD"> F  </i>
   <i type="logical" name="LVTOT"> F  </i>
   <i type="logical" name="LVHAR"> F  </i>
   <i type="logical" name="LELF"> F  </i>
   <i type="logical" name="LOPTICS"> F  </i>
   <v name="STM">      0.00000000      0.00000000      0.00000000      0.00000000      0.00000000      0.00000000      0.00000000</v>
  </separator>
  <separator name="performance" >
   <i type="int" name="NPAR">     2</i>
   <i type="int" name="NSIM">     4</i>
   <i type="int" name="NBLK">    -1</i>
   <i type="logical" name="LPLANE"> T  </i>
   <i type="logical" name="LSCALAPACK"> F  </i>
   <i type="logical" name="LSCAAWARE"> F  </i>
   <i type="logical" name="LSCALU"> F  </i>
   <i type="logical" name="LASYNC"> F  </i>
   <i type="logical" name="LORBITALREAL"> F  </i>
  </separator>
  <separator name="miscellaneous" >
   <i type="int" name="IDIOT">     3</i>
   <i type="int" name="ISPECIAL">     0</i>
   <i type="logical" name="LMUSIC"> F  </i>
   <v name="POMASS">    195.08000000</v>
   <v name="DARWINR">      0.00000000</v>
   <v name="DARWINV">      1.00000000</v>
   <i type="logical" name="LCORR"> T  </i>
  </separator>
  <i type="logical" name="GGA_COMPAT"> T  </i>
  <i type="logical" name="LBERRY"> F  </i>
  <i type="int" name="ICORELEVEL">     0</i>
  <i type="logical" name="LDAU"> F  </i>
  <i type="int" name="I_CONSTRAINED_M">     0</i>
  <separator name="electronic exchange-correlation" >
   <i type="string" name="GGA">91</i>
   <i type="int" name="VOSKOWN">     0</i>
   <i type="logical" name="LHFCALC"> F  </i>
   <i type="string" name="PRECFOCK"></i>
   <i type="logical" name="LSYMGRAD"> F  </i>
   <i type="logical" name="LHFONE"> F  </i>
   <i type="logical" name="LRHFCALC"> F  </i>
   <i type="logical" name="LTHOMAS"> F  </i>
   <i type="logical" name="LMODELHF"> F  </i>
   <i name="ENCUT4O">     -1.00000000</i>
   <i type="int" name="EXXOEP">     0</i>
   <i type="int" name="FOURORBIT">     0</i>
   <i name="AEXX">      0.00000000</i>
   <i name="HFALPHA">      0.00000000</i>
   <i name="MCALPHA">      0.00000000</i>
   <i name="ALDAX">      1.00000000</i>
   <i name="AGGAX">      1.00000000</i>
   <i name="ALDAC">      1.00000000</i>
   <i name="AGGAC">      1.00000000</i>
   <i type="int" name="NKREDX">     1</i>
   <i type="int" name="NKREDY">     1</i>
   <i type="int" name="NKREDZ">     1</i>
   <i type="logical" name="SHIFTRED"> F  </i>
   <i type="logical" name="ODDONLY"> F  </i>
   <i type="logical" name="EVENONLY"> F  </i>
   <i type="int" name="LMAXFOCK">     0</i>
   <i type="int" name="NMAXFOCKAE">     0</i>
   <i type="logical" name="LFOCKAEDFT"> F  </i>
   <i name="HFSCREEN">      0.00000000</i>
   <i name="HFSCREENC">      0.00000000</i>
   <i type="int" name="NBANDSGWLOW">     0</i>
  </separator>
  <separator name="vdW DFT" >
   <i type="logical" name="LUSE_VDW"> F  </i>
   <i name="Zab_VDW">     -0.84910000</i>
   <i name="PARAM1">      0.12340000</i>
   <i name="PARAM2">      1.00000000</i>
   <i name="PARAM3">      0.00000000</i>
  </separator>
  <separator name="model GW" >
   <i type="int" name="MODEL_GW">     0</i>
   <i name="MODEL_EPS0">      8.62686840</i>
   <i name="MODEL_ALPHA">      1.00000000</i>
  </separator>
  <separator name="linear response parameters" >
   <i type="logical" name="LEPSILON"> F  </i>
   <i type="logical" name="LRPA"> F  </i>
   <i type="logical" name="LNABLA"> F  </i>
   <i type="logical" name="LVEL"> F  </i>
   <i type="int" name="KINTER">     0</i>
   <i name="CSHIFT">      0.10000000</i>
   <i name="OMEGAMAX">     -1.00000000</i>
   <i name="DEG_THRESHOLD">      0.00200000</i>
   <i name="RTIME">     -0.10000000</i>
   <i name="WPLASMAI">      0.00000000</i>
   <v name="DFIELD">      0.00000000      0.00000000      0.00000000</v>
   <v name="WPLASMA">      0.00000000      0.00000000      0.00000000      0.00000000      0.00000000      0.00000000      0.00000000      0.00000000      0.00000000</v>
  </separator>
  <separator name="orbital magnetization" >
   <i type="logical" name="NUCIND"> F  </i>
   <v name="MAGPOS">      0.00000000      0.00000000      0.00000000</v>
   <i type="logical" name="LNICSALL"> T  </i>
   <i type="logical" name="ORBITALMAG"> F  </i>
   <i type="logical" name="LMAGBLOCH"> F  </i>
   <i type="logical" name="LCHIMAG"> F  </i>
   <i type="logical" name="LGAUGE"> T  </i>
   <i type="int" name="MAGATOM">     0</i>
   <v name="MAGDIPOL">      0.00000000      0.00000000      0.00000000</v>
   <v name="AVECCONST">      0.00000000      0.00000000      0.00000000</v>
  </separator>
  <separator name="response functions" >
   <i type="logical" name="LADDER"> F  </i>
   <i type="logical" name="LRPAFORCE"> F  </i>
   <i type="logical" name="LFXC"> F  </i>
   <i type="logical" name="LHARTREE"> T  </i>
   <i type="int" name="IBSE">     0</i>
   <v type="int" name="KPOINT">    -1     0     0     0</v>
   <i type="logical" name="LTCTE"> F  </i>
   <i type="logical" name="LTETE"> F  </i>
   <i type="logical" name="LTRIPLET"> F  </i>
   <i type="logical" name="LFXCEPS"> F  </i>
   <i type="logical" name="LFXHEG"> F  </i>
   <i type="int" name="NATURALO">     2</i>
   <i type="logical" name="L2ORDER"> F  </i>
   <i type="logical" name="LMP2LT"> F  </i>
   <i type="logical" name="LUSEW"> F  </i>
   <i name="ENCUTGW">     -2.00000000</i>
   <i name="ENCUTGWSOFT">     -2.00000000</i>
   <i name="ENCUTLF">     -1.00000000</i>
   <i type="int" name="LMAXMP2">    -1</i>
   <i name="SCISSOR">      0.00000000</i>
   <i type="int" name="NOMEGA">     0</i>
   <i type="int" name="NOMEGAR">     0</i>
   <i type="int" name="NBANDSGW">    -1</i>
   <i type="int" name="NBANDSO">    -1</i>
   <i type="int" name="NBANDSV">    -1</i>
   <i type="int" name="NELM">     1</i>
   <i type="int" name="NELMHF">     1</i>
   <i type="int" name="DIM">     3</i>
   <i type="int" name="ANTIRES">     0</i>
   <i name="OMEGAMAX">    -30.00000000</i>
   <i name="OMEGAMIN">    -30.00000000</i>
   <i name="OMEGATL">   -200.00000000</i>
   <i type="int" name="OMEGAGRID">   140</i>
   <i name="CSHIFT">     -0.10000000</i>
   <i type="logical" name="SELFENERGY"> F  </i>
   <i type="logical" name="LSPECTRAL"> F  </i>
   <i type="logical" name="LSPECTRALGW"> F  </i>
   <i type="logical" name="LSINGLES"> F  </i>
   <i type="logical" name="LFERMIGW"> F  </i>
   <i type="logical" name="ODDONLYGW"> F  </i>
   <i type="logical" name="EVENONLYGW"> F  </i>
   <i type="int" name="NKREDLFX">     1</i>
   <i type="int" name="NKREDLFY">     1</i>
   <i type="int" name="NKREDLFZ">     1</i>
   <i type="int" name="MAXMEM">  2800</i>
   <i type="int" name="TELESCOPE">     0</i>
   <i type="int" name="TAUPAR">     1</i>
   <i type="int" name="OMEGAPAR">    -1</i>
   <i name="LAMBDA">      1.00000000</i>
  </separator>
  <separator name="External order field" >
   <i name="OFIELD_KAPPA">      0.00000000</i>
   <v name="OFIELD_K">      0.00000000      0.00000000      0.00000000</v>
   <i name="OFIELD_Q6_NEAR">      0.00000000</i>
   <i name="OFIELD_Q6_FAR">      0.00000000</i>
   <i name="OFIELD_A">      0.00000000</i>
  </separator>
 </parameters>
 <atominfo>
  <atoms>       4 </atoms>
  <types>       1 </types>
  <array name="atoms" >
   <dimension dim="1">ion</dimension>
   <field type="string">element</field>
   <field type="int">atomtype</field>
   <set>
    <rc><c>Pt</c><c>   1</c></rc>
    <rc><c>Pt</c><c>   1</c></rc>
    <rc><c>Pt</c><c>   1</c></rc>
    <rc><c>Pt</c><c>   1</c></rc>
   </set>
  </array>
  <array name="atomtypes" >
   <dimension dim="1">type</dimension>
   <field type="int">atomspertype</field>
   <field type="string">element</field>
   <field>mass</field>
   <field>valence</field>
   <field type="string">pseudopotential</field>
   <set>
    <rc><c>   4</c><c>Pt</c><c>    195.08000000</c><c>     10.00000000</c><c> PAW_PBE Pt 05Jan2001                   </c></rc>
   </set>
  </array>
 </atominfo>
 <structure name="initialpos" >
  <crystal>
   <varray name="basis" >
    <v>       3.86000000       0.00000000       0.00000000 </v>
    <v>       0.00000000       3.86000000       0.00000000 </v>
    <v>       0.00000000       0.00000000       3.86000000 </v>
   </varray>
   <i name="volume">     57.51245600 </i>
   <varray name="rec_basis" >
    <v>       0.25906736       0.00000000       0.00000000 </v>
    <v>       0.00000000       0.25906736       0.00000000 </v>
    <v>       0.00000000       0.00000000       0.25906736 </v>
   </varray>
  </crystal>
  <varray name="positions" >
   <v>       0.00000000       0.00000000       0.00000000 </v>
   <v>       0.00000000       0.50000000       0.50000000 </v>
   <v>       0.50000000       0.00000000       0.50000000 </v>
   <v>       0.50000000       0.50000000       0.00000000 </v>
  </varray>
 </structure>
 <calculation>
  <scstep>
   <time name="dav">    1.90    1.90</time>
   <time name="total">    1.92    2.03</time>
   <energy>
    <i name="alphaZ">    404.76874783 </i>
    <i name="ewald">  -3420.77921021 </i>
    <i name="hartreedc">   -269.56971511 </i>
    <i name="XCdc">     15.03000749 </i>
    <i name="pawpsdc">   2293.79710215 </i>
    <i name="pawaedc">  -2181.03440391 </i>
    <i name="eentropy">     -0.00140344 </i>
    <i name="bandstr">    697.51979931 </i>
    <i name="atom">   2915.53815049 </i>
    <i name="e_fr_energy">    455.26907461 </i>
    <i name="e_wo_entrp">    455.27047805 </i>
    <i name="e_0_energy">    455.26942547 </i>
   </energy>
  </scstep>
  <scstep>
   <time name="dav">    1.85    1.85</time>
   <time name="total">    1.86    1.86</time>
   <energy>
    <i name="e_fr_energy">      3.62069824 </i>
    <i name="e_wo_entrp">      3.62280987 </i>
    <i name="e_0_energy">      3.62122614 </i>
   </energy>
  </scstep>
  <scstep>
   <time name="dav">    2.35    2.35</time>
   <time name="total">    2.36    2.36</time>
   <energy>
    <i name="e_fr_energy">    -24.66441188 </i>
    <i name="e_wo_entrp">    -24.66085727 </i>
    <i name="e_0_energy">    -24.66352323 </i>
   </energy>
  </scstep>
  <scstep>
   <time name="dav">    1.84    1.84</time>
   <time name="total">    1.86    1.86</time>
   <energy>
    <i name="e_fr_energy">    -25.45420958 </i>
    <i name="e_wo_entrp">    -25.44970906 </i>
    <i name="e_0_energy">    -25.45308445 </i>
   </energy>
  </scstep>
  <scstep>
   <time name="dav">    2.04    2.04</time>
   <time name="total">    2.16    2.16</time>
   <energy>
    <i name="e_fr_energy">    -25.47606121 </i>
    <i name="e_wo_entrp">    -25.47161238 </i>
    <i name="e_0_energy">    -25.47494900 </i>
   </energy>
  </scstep>
  <scstep>
   <time name="dav">    2.05    2.05</time>
   <time name="total">    2.17    2.17</time>
   <energy>
    <i name="e_fr_energy">    -24.08387865 </i>
    <i name="e_wo_entrp">    -24.07956521 </i>
    <i name="e_0_energy">    -24.08280029 </i>
   </energy>
  </scstep>
  <scstep>
   <time name="dav">    2.41    2.41</time>
   <time name="total">    2.54    2.54</time>
   <energy>
    <i name="e_fr_energy">    -23.91223677 </i>
    <i name="e_wo_entrp">    -23.90758173 </i>
    <i name="e_0_energy">    -23.91107301 </i>
   </energy>
  </scstep>
  <scstep>
   <time name="dav">    1.82    1.82</time>
   <time name="total">    1.95    1.95</time>
   <energy>
    <i name="e_fr_energy">    -23.89390922 </i>
    <i name="e_wo_entrp">    -23.88924497 </i>
    <i name="e_0_energy">    -23.89274316 </i>
   </energy>
  </scstep>
  <scstep>
   <time name="dav">    2.23    2.23</time>
   <time name="total">    2.35    2.35</time>
   <energy>
    <i name="e_fr_energy">    -23.89361009 </i>
    <i name="e_wo_entrp">    -23.88893138 </i>
    <i name="e_0_energy">    -23.89244041 </i>
   </energy>
  </scstep>
  <scstep>
   <time name="dav">    1.95    1.95</time>
   <time name="total">    2.08    2.08</time>
   <energy>
    <i name="e_fr_energy">    -23.89363213 </i>
    <i name="e_wo_entrp">    -23.88895323 </i>
    <i name="e_0_energy">    -23.89246240 </i>
   </energy>
  </scstep>
  <scstep>
   <time name="dav">    1.52    1.52</time>
   <time name="total">    1.64    1.64</time>
   <energy>
    <i name="e_fr_energy">    -23.89363497 </i>
    <i name="e_wo_entrp">    -23.88895588 </i>
    <i name="e_0_energy">    -23.89246520 </i>
   </energy>
  </scstep>
  <scstep>
   <time name="dav">    1.20    1.20</time>
   <time name="total">    1.22    1.22</time>
   <energy>
    <i name="alphaZ">    404.76874783 </i>
    <i name="ewald">  -3420.77921021 </i>
    <i name="hartreedc">   -230.26846600 </i>
    <i name="XCdc">     13.54697467 </i>
    <i name="pawpsdc">   2458.62322656 </i>
    <i name="pawaedc">  -2357.66766262 </i>
    <i name="eentropy">     -0.00467902 </i>
    <i name="bandstr">    192.34928342 </i>
    <i name="atom">   2915.53815049 </i>
    <i name="e_fr_energy">    -23.89363488 </i>
    <i name="e_wo_entrp">    -23.88895586 </i>
    <i name="e_0_energy">    -23.89246512 </i>
   </energy>
  </scstep>
  <structure>
   <crystal>
    <varray name="basis" >
     <v>       3.86000000       0.00000000       0.00000000 </v>
     <v>       0.00000000       3.86000000       0.00000000 </v>
     <v>       0.00000000       0.00000000       3.86000000 </v>
    </varray>
    <i name="volume">     57.51245600 </i>
    <varray name="rec_basis" >
     <v>       0.25906736       0.00000000       0.00000000 </v>
     <v>       0.00000000       0.25906736       0.00000000 </v>
     <v>       0.00000000       0.00000000       0.25906736 </v>
    </varray>
   </crystal>
   <varray name="positions" >
    <v>       0.00000000       0.00000000       0.00000000 </v>
    <v>       0.00000000       0.50000000       0.50000000 </v>
    <v>       0.50000000       0.00000000       0.50000000 </v>
    <v>       0.50000000       0.50000000       0.00000000 </v>
   </varray>
  </structure>
  <varray name="forces" >
   <v>      -0.00000000       0.00000000      -0.00000000 </v>
   <v>      -0.00000000      -0.00000000       0.00000000 </v>
   <v>       0.00000000      -0.00000000      -0.00000000 </v>
   <v>       0.00000000       0.00000000       0.00000000 </v>
  </varray>
  <varray name="stress" >
   <v>     315.08073432      -0.00000000       0.00000000 </v>
   <v>       0.00000000     315.08073432      -0.00000000 </v>
   <v>      -0.00000000      -0.00000000     315.08073432 </v>
  </varray>
  <energy>
   <i name="e_fr_energy">    -23.89363488 </i>
   <i name="e_wo_entrp">    -23.89246512 </i>
   <i name="e_0_energy">     -0.00467902 </i>
  </energy>
  <time name="totalsc">   25.89   27.40</time>
  <eigenvalues>
   <array>
    <dimension dim="1">band</dimension>
    <dimension dim="2">kpoint</dimension>
    <dimension dim="3">spin</dimension>
    <field>eigene</field>
    <field>occ</field>
    <set>
     <set comment="spin 1">
      <set comment="kpoint 1">
       <r>   -1.9858    1.0000 </r>
       <r>    1.1014    1.0000 </r>
       <r>    1.1014    1.0000 </r>
       <r>    1.1014    1.0000 </r>
       <r>    1.5742    1.0000 </r>
       <r>    1.5742    1.0000 </r>
       <r>    1.5742    1.0000 </r>
       <r>    4.5956    1.0000 </r>
       <r>    4.6194    1.0000 </r>
       <r>    4.6194    1.0000 </r>
       <r>    6.9503    1.0000 </r>
       <r>    6.9503    1.0000 </r>
       <r>    8.7218    0.5349 </r>
       <r>    8.7218    0.5349 </r>
       <r>    8.7218    0.5349 </r>
       <r>    9.0789    0.0017 </r>
       <r>    9.0789    0.0017 </r>
       <r>    9.0789    0.0017 </r>
       <r>    9.2559    0.0013 </r>
       <r>    9.2559    0.0013 </r>
       <r>    9.2559    0.0013 </r>
       <r>   10.6513    0.0000 </r>
       <r>   10.6513    0.0000 </r>
       <r>   10.6513    0.0000 </r>
      </set>
      <set comment="kpoint 2">
       <r>   -1.9149    1.0000 </r>
       <r>    1.1313    1.0000 </r>
       <r>    1.1541    1.0000 </r>
       <r>    1.1541    1.0000 </r>
       <r>    1.6038    1.0000 </r>
       <r>    1.6206    1.0000 </r>
       <r>    1.6206    1.0000 </r>
       <r>    4.5505    1.0000 </r>
       <r>    4.6537    1.0000 </r>
       <r>    4.6568    1.0000 </r>
       <r>    6.8958    1.0000 </r>
       <r>    6.9703    1.0000 </r>
       <r>    8.5710    1.0393 </r>
       <r>    8.5710    1.0393 </r>
       <r>    8.6537    0.8552 </r>
       <r>    8.6537    0.8552 </r>
       <r>    8.6906    0.6946 </r>
       <r>    8.9535   -0.0441 </r>
       <r>    9.1639    0.0044 </r>
       <r>    9.2506    0.0014 </r>
       <r>    9.2506    0.0014 </r>
       <r>   10.3175    0.0000 </r>
       <r>   11.1844    0.0000 </r>
       <r>   11.1844    0.0000 </r>
      </set>
      <set comment="kpoint 3">
       <r>   -1.7744    1.0000 </r>
       <r>    1.1879    1.0000 </r>
       <r>    1.2577    1.0000 </r>
       <r>    1.2577    1.0000 </r>
       <r>    1.6629    1.0000 </r>
       <r>    1.7132    1.0000 </r>
       <r>    1.7132    1.0000 </r>
       <r>    4.4565    1.0000 </r>
       <r>    4.7285    1.0000 </r>
       <r>    4.7314    1.0000 </r>
       <r>    6.7895    1.0000 </r>
       <r>    7.0100    1.0000 </r>
       <r>    7.9602    1.0000 </r>
       <r>    7.9602    1.0000 </r>
       <r>    8.4835    1.0355 </r>
       <r>    8.4835    1.0355 </r>
       <r>    8.6239    0.9510 </r>
       <r>    8.6973    0.6613 </r>
       <r>    8.9948   -0.0252 </r>
       <r>    9.2499    0.0015 </r>
       <r>    9.2499    0.0015 </r>
       <r>    9.7732    0.0000 </r>
       <r>   11.8719    0.0000 </r>
       <r>   11.8719    0.0000 </r>
      </set>
      <set comment="kpoint 4">
       <r>   -1.5664    1.0000 </r>
       <r>    1.2644    1.0000 </r>
       <r>    1.4083    1.0000 </r>
       <r>    1.4083    1.0000 </r>
       <r>    1.7505    1.0000 </r>
       <r>    1.8516    1.0000 </r>
       <r>    1.8516    1.0000 </r>
       <r>    4.3206    1.0000 </r>
       <r>    4.8407    1.0000 </r>
       <r>    4.8428    1.0000 </r>
       <r>    6.6373    1.0000 </r>
       <r>    7.0687    1.0000 </r>
       <r>    7.3259    1.0000 </r>
       <r>    7.3259    1.0000 </r>
       <r>    8.2513    0.9971 </r>
       <r>    8.2513    0.9971 </r>
       <r>    8.2893    0.9958 </r>
       <r>    8.5032    1.0441 </r>
       <r>    8.7851    0.2180 </r>
       <r>    9.1796    0.0038 </r>
       <r>    9.2500    0.0015 </r>
       <r>    9.2500    0.0015 </r>
       <r>   12.6040    0.0000 </r>
       <r>   12.6040    0.0000 </r>
      </set>
      <set comment="kpoint 5">
       <r>   -1.2950    1.0000 </r>
       <r>    1.3493    1.0000 </r>
       <r>    1.5994    1.0000 </r>
       <r>    1.5994    1.0000 </r>
       <r>    1.8658    1.0000 </r>
       <r>    2.0352    1.0000 </r>
       <r>    2.0352    1.0000 </r>
       <r>    4.1494    1.0000 </r>
       <r>    4.9887    1.0000 </r>
       <r>    4.9904    1.0000 </r>
       <r>    6.4480    1.0000 </r>
       <r>    6.7036    1.0000 </r>
       <r>    6.7036    1.0000 </r>
       <r>    7.1453    1.0000 </r>
       <r>    7.7229    1.0000 </r>
       <r>    7.9613    1.0000 </r>
       <r>    7.9613    1.0000 </r>
       <r>    8.2848    0.9959 </r>
       <r>    8.5998    1.0035 </r>
       <r>    8.6547    0.8515 </r>
       <r>    9.2503    0.0015 </r>
       <r>    9.2503    0.0015 </r>
       <r>   13.3506    0.0000 </r>
       <r>   13.3506    0.0000 </r>
      </set>
      <set comment="kpoint 6">
       <r>   -0.9660    1.0000 </r>
       <r>    1.4240    1.0000 </r>
       <r>    1.8212    1.0000 </r>
       <r>    1.8212    1.0000 </r>
       <r>    2.0071    1.0000 </r>
       <r>    2.2626    1.0000 </r>
       <r>    2.2626    1.0000 </r>
       <r>    3.9500    1.0000 </r>
       <r>    5.1703    1.0000 </r>
       <r>    5.1733    1.0000 </r>
       <r>    6.1038    1.0000 </r>
       <r>    6.1038    1.0000 </r>
       <r>    6.2348    1.0000 </r>
       <r>    7.0791    1.0000 </r>
       <r>    7.2386    1.0000 </r>
       <r>    7.6326    1.0000 </r>
       <r>    7.6326    1.0000 </r>
       <r>    7.9761    1.0000 </r>
       <r>    8.2018    0.9987 </r>
       <r>    8.4529    1.0210 </r>
       <r>    9.2508    0.0014 </r>
       <r>    9.2508    0.0014 </r>
       <r>   14.0958    0.0000 </r>
       <r>   14.0958    0.0000 </r>
      </set>
      <set comment="kpoint 7">
       <r>   -0.5884    1.0000 </r>
       <r>    1.4612    1.0000 </r>
       <r>    2.0586    1.0000 </r>
       <r>    2.0586    1.0000 </r>
       <r>    2.1726    1.0000 </r>
       <r>    2.5325    1.0000 </r>
       <r>    2.5325    1.0000 </r>
       <r>    3.7302    1.0000 </r>
       <r>    5.3782    1.0000 </r>
       <r>    5.3902    1.0000 </r>
       <r>    5.5320    1.0000 </r>
       <r>    5.5320    1.0000 </r>
       <r>    6.0191    1.0000 </r>
       <r>    6.4656    1.0000 </r>
       <r>    7.2916    1.0000 </r>
       <r>    7.2916    1.0000 </r>
       <r>    7.3467    1.0000 </r>
       <r>    7.6270    1.0000 </r>
       <r>    7.7825    1.0000 </r>
       <r>    8.3141    0.9951 </r>
       <r>    9.2513    0.0014 </r>
       <r>    9.2513    0.0014 </r>
       <r>   14.8231    0.0000 </r>
       <r>   14.8231    0.0000 </r>
      </set>
      <set comment="kpoint 8">
       <r>   -0.1755    1.0000 </r>
       <r>    1.4255    1.0000 </r>
       <r>    2.2886    1.0000 </r>
       <r>    2.2886    1.0000 </r>
       <r>    2.3599    1.0000 </r>
       <r>    2.8433    1.0000 </r>
       <r>    2.8433    1.0000 </r>
       <r>    3.4972    1.0000 </r>
       <r>    4.9917    1.0000 </r>
       <r>    4.9917    1.0000 </r>
       <r>    5.5646    1.0000 </r>
       <r>    5.6395    1.0000 </r>
       <r>    5.8675    1.0000 </r>
       <r>    5.9608    1.0000 </r>
       <r>    6.9730    1.0000 </r>
       <r>    6.9730    1.0000 </r>
       <r>    7.2650    1.0000 </r>
       <r>    7.3812    1.0000 </r>
       <r>    7.4676    1.0000 </r>
       <r>    8.1727    0.9992 </r>
       <r>    9.2518    0.0014 </r>
       <r>    9.2518    0.0014 </r>
       <r>   15.4974    0.0000 </r>
       <r>   15.4974    0.0000 </r>
      </set>
      <set comment="kpoint 9">
       <r>    0.2522    1.0000 </r>
       <r>    1.2831    1.0000 </r>
       <r>    2.4781    1.0000 </r>
       <r>    2.4781    1.0000 </r>
       <r>    2.5660    1.0000 </r>
       <r>    3.1941    1.0000 </r>
       <r>    3.1941    1.0000 </r>
       <r>    3.2583    1.0000 </r>
       <r>    4.4858    1.0000 </r>
       <r>    4.4858    1.0000 </r>
       <r>    5.5305    1.0000 </r>
       <r>    5.6167    1.0000 </r>
       <r>    5.9190    1.0000 </r>
       <r>    6.0041    1.0000 </r>
       <r>    6.7195    1.0000 </r>
       <r>    6.7195    1.0000 </r>
       <r>    6.9048    1.0000 </r>
       <r>    6.9969    1.0000 </r>
       <r>    7.5990    1.0000 </r>
       <r>    8.0280    1.0000 </r>
       <r>    9.2521    0.0014 </r>
       <r>    9.2521    0.0014 </r>
       <r>   15.9801    0.0000 </r>
       <r>   15.9801    0.0000 </r>
      </set>
      <set comment="kpoint 10">
       <r>    0.6648    1.0000 </r>
       <r>    1.0222    1.0000 </r>
       <r>    2.5876    1.0000 </r>
       <r>    2.5876    1.0000 </r>
       <r>    2.7873    1.0000 </r>
       <r>    3.0197    1.0000 </r>
       <r>    3.5847    1.0000 </r>
       <r>    3.5847    1.0000 </r>
       <r>    4.0170    1.0000 </r>
       <r>    4.0170    1.0000 </r>
       <r>    5.4409    1.0000 </r>
       <r>    5.4510    1.0000 </r>
       <r>    6.2258    1.0000 </r>
       <r>    6.2973    1.0000 </r>
       <r>    6.5561    1.0000 </r>
       <r>    6.5766    1.0000 </r>
       <r>    6.5766    1.0000 </r>
       <r>    6.6335    1.0000 </r>
       <r>    7.7382    1.0000 </r>
       <r>    7.8822    1.0000 </r>
       <r>    9.2523    0.0014 </r>
       <r>    9.2523    0.0014 </r>
       <r>   16.1114    0.0000 </r>
       <r>   16.1114    0.0000 </r>
      </set>
      <set comment="kpoint 11">
       <r>   -1.8448    1.0000 </r>
       <r>    1.1843    1.0000 </r>
       <r>    1.1843    1.0000 </r>
       <r>    1.2023    1.0000 </r>
       <r>    1.6499    1.0000 </r>
       <r>    1.6499    1.0000 </r>
       <r>    1.6699    1.0000 </r>
       <r>    4.5244    1.0000 </r>
       <r>    4.6712    1.0000 </r>
       <r>    4.6908    1.0000 </r>
       <r>    6.8798    1.0000 </r>
       <r>    6.9552    1.0000 </r>
       <r>    8.2788    0.9961 </r>
       <r>    8.4030    1.0032 </r>
       <r>    8.4030    1.0032 </r>
       <r>    8.5571    1.0476 </r>
       <r>    8.6451    0.8862 </r>
       <r>    8.6451    0.8862 </r>
       <r>    9.1622    0.0044 </r>
       <r>    9.1622    0.0044 </r>
       <r>    9.2001    0.0031 </r>
       <r>   10.8649    0.0000 </r>
       <r>   10.8649    0.0000 </r>
       <r>   11.5805    0.0000 </r>
      </set>
      <set comment="kpoint 12">
       <r>   -1.7056    1.0000 </r>
       <r>    1.2414    1.0000 </r>
       <r>    1.2884    1.0000 </r>
       <r>    1.2973    1.0000 </r>
       <r>    1.7081    1.0000 </r>
       <r>    1.7417    1.0000 </r>
       <r>    1.7679    1.0000 </r>
       <r>    4.4435    1.0000 </r>
       <r>    4.7350    1.0000 </r>
       <r>    4.7604    1.0000 </r>
       <r>    6.7896    1.0000 </r>
       <r>    6.9858    1.0000 </r>
       <r>    7.7800    1.0000 </r>
       <r>    7.7899    1.0000 </r>
       <r>    8.1195    0.9998 </r>
       <r>    8.4054    1.0038 </r>
       <r>    8.4851    1.0363 </r>
       <r>    8.5731    1.0375 </r>
       <r>    9.0015   -0.0220 </r>
       <r>    9.1589    0.0045 </r>
       <r>    9.1703    0.0042 </r>
       <r>   10.3452    0.0000 </r>
       <r>   11.5417    0.0000 </r>
       <r>   12.1762    0.0000 </r>
      </set>
      <set comment="kpoint 13">
       <r>   -1.4996    1.0000 </r>
       <r>    1.3188    1.0000 </r>
       <r>    1.4361    1.0000 </r>
       <r>    1.4399    1.0000 </r>
       <r>    1.7946    1.0000 </r>
       <r>    1.8790    1.0000 </r>
       <r>    1.9132    1.0000 </r>
       <r>    4.3149    1.0000 </r>
       <r>    4.8428    1.0000 </r>
       <r>    4.8635    1.0000 </r>
       <r>    6.6454    1.0000 </r>
       <r>    7.0474    1.0000 </r>
       <r>    7.1621    1.0000 </r>
       <r>    7.2116    1.0000 </r>
       <r>    7.7225    1.0000 </r>
       <r>    8.1872    0.9990 </r>
       <r>    8.2641    0.9967 </r>
       <r>    8.4294    1.0113 </r>
       <r>    8.7993    0.1590 </r>
       <r>    9.1560    0.0046 </r>
       <r>    9.1565    0.0046 </r>
       <r>    9.7606    0.0000 </r>
       <r>   12.2465    0.0000 </r>
       <r>   12.8549    0.0000 </r>
      </set>
      <set comment="kpoint 14">
       <r>   -1.2308    1.0000 </r>
       <r>    1.4046    1.0000 </r>
       <r>    1.6142    1.0000 </r>
       <r>    1.6324    1.0000 </r>
       <r>    1.9083    1.0000 </r>
       <r>    2.0609    1.0000 </r>
       <r>    2.1030    1.0000 </r>
       <r>    4.1493    1.0000 </r>
       <r>    4.9887    1.0000 </r>
       <r>    4.9979    1.0000 </r>
       <r>    6.4661    1.0000 </r>
       <r>    6.5491    1.0000 </r>
       <r>    6.6291    1.0000 </r>
       <r>    7.1306    1.0000 </r>
       <r>    7.2319    1.0000 </r>
       <r>    7.9117    1.0000 </r>
       <r>    7.9861    1.0000 </r>
       <r>    8.2010    0.9987 </r>
       <r>    8.5806    1.0304 </r>
       <r>    9.1499    0.0047 </r>
       <r>    9.1539    0.0046 </r>
       <r>    9.2110    0.0027 </r>
       <r>   12.9495    0.0000 </r>
       <r>   13.5681    0.0000 </r>
      </set>
      <set comment="kpoint 15">
       <r>   -0.9048    1.0000 </r>
       <r>    1.4802    1.0000 </r>
       <r>    1.8250    1.0000 </r>
       <r>    1.8561    1.0000 </r>
       <r>    2.0477    1.0000 </r>
       <r>    2.2863    1.0000 </r>
       <r>    2.3325    1.0000 </r>
       <r>    3.9552    1.0000 </r>
       <r>    5.1550    1.0000 </r>
       <r>    5.1718    1.0000 </r>
       <r>    5.9607    1.0000 </r>
       <r>    6.0555    1.0000 </r>
       <r>    6.2705    1.0000 </r>
       <r>    6.6927    1.0000 </r>
       <r>    7.2326    1.0000 </r>
       <r>    7.5969    1.0000 </r>
       <r>    7.6678    1.0000 </r>
       <r>    7.9022    1.0000 </r>
       <r>    8.3091    0.9952 </r>
       <r>    8.7767    0.2556 </r>
       <r>    9.1470    0.0048 </r>
       <r>    9.1524    0.0047 </r>
       <r>   13.6289    0.0000 </r>
       <r>   14.2906    0.0000 </r>
      </set>
      <set comment="kpoint 16">
       <r>   -0.5305    1.0000 </r>
       <r>    1.5179    1.0000 </r>
       <r>    2.0579    1.0000 </r>
       <r>    2.0961    1.0000 </r>
       <r>    2.2108    1.0000 </r>
       <r>    2.5534    1.0000 </r>
       <r>    2.5953    1.0000 </r>
       <r>    3.7403    1.0000 </r>
       <r>    5.3168    1.0000 </r>
       <r>    5.3865    1.0000 </r>
       <r>    5.4025    1.0000 </r>
       <r>    5.5022    1.0000 </r>
       <r>    6.0944    1.0000 </r>
       <r>    6.1697    1.0000 </r>
       <r>    7.2689    1.0000 </r>
       <r>    7.3341    1.0000 </r>
       <r>    7.3514    1.0000 </r>
       <r>    7.5656    1.0000 </r>
       <r>    7.9372    1.0000 </r>
       <r>    8.4966    1.0414 </r>
       <r>    9.1459    0.0048 </r>
       <r>    9.1512    0.0047 </r>
       <r>   14.2577    0.0000 </r>
       <r>   14.9982    0.0000 </r>
      </set>
      <set comment="kpoint 17">
       <r>   -0.1209    1.0000 </r>
       <r>    1.4815    1.0000 </r>
       <r>    2.2938    1.0000 </r>
       <r>    2.3295    1.0000 </r>
       <r>    2.3952    1.0000 </r>
       <r>    2.8603    1.0000 </r>
       <r>    2.8850    1.0000 </r>
       <r>    3.5123    1.0000 </r>
       <r>    4.8788    1.0000 </r>
       <r>    4.9757    1.0000 </r>
       <r>    5.4126    1.0000 </r>
       <r>    5.6323    1.0000 </r>
       <r>    5.7319    1.0000 </r>
       <r>    6.0260    1.0000 </r>
       <r>    6.9629    1.0000 </r>
       <r>    7.0177    1.0000 </r>
       <r>    7.2151    1.0000 </r>
       <r>    7.4847    1.0000 </r>
       <r>    7.5268    1.0000 </r>
       <r>    8.2953    0.9956 </r>
       <r>    9.1459    0.0048 </r>
       <r>    9.1502    0.0047 </r>
       <r>   14.7980    0.0000 </r>
       <r>   15.6118    0.0000 </r>
      </set>
      <set comment="kpoint 18">
       <r>    0.3042    1.0000 </r>
       <r>    1.3370    1.0000 </r>
       <r>    2.4985    1.0000 </r>
       <r>    2.5221    1.0000 </r>
       <r>    2.5980    1.0000 </r>
       <r>    3.2007    1.0000 </r>
       <r>    3.2058    1.0000 </r>
       <r>    3.2781    1.0000 </r>
       <r>    4.3944    1.0000 </r>
       <r>    4.4810    1.0000 </r>
       <r>    5.3729    1.0000 </r>
       <r>    5.4345    1.0000 </r>
       <r>    5.9062    1.0000 </r>
       <r>    6.1595    1.0000 </r>
       <r>    6.7223    1.0000 </r>
       <r>    6.7602    1.0000 </r>
       <r>    6.8656    1.0000 </r>
       <r>    7.1279    1.0000 </r>
       <r>    7.6301    1.0000 </r>
       <r>    8.1173    0.9998 </r>
       <r>    9.1464    0.0048 </r>
       <r>    9.1492    0.0047 </r>
       <r>   15.2080    0.0000 </r>
       <r>   15.7658    0.0000 </r>
      </set>
      <set comment="kpoint 19">
       <r>    0.7158    1.0000 </r>
       <r>    1.0740    1.0000 </r>
       <r>    2.6238    1.0000 </r>
       <r>    2.6316    1.0000 </r>
       <r>    2.8157    1.0000 </r>
       <r>    3.0440    1.0000 </r>
       <r>    3.5482    1.0000 </r>
       <r>    3.5860    1.0000 </r>
       <r>    3.9576    1.0000 </r>
       <r>    4.0237    1.0000 </r>
       <r>    5.2982    1.0000 </r>
       <r>    5.2983    1.0000 </r>
       <r>    6.2055    1.0000 </r>
       <r>    6.4265    1.0000 </r>
       <r>    6.5269    1.0000 </r>
       <r>    6.5934    1.0000 </r>
       <r>    6.6071    1.0000 </r>
       <r>    6.7572    1.0000 </r>
       <r>    7.7853    1.0000 </r>
       <r>    7.9481    1.0000 </r>
       <r>    9.1473    0.0048 </r>
       <r>    9.1483    0.0048 </r>
       <r>   15.4795    0.0000 </r>
       <r>   15.6543    0.0000 </r>
      </set>
      <set comment="kpoint 20">
       <r>   -1.5690    1.0000 </r>
       <r>    1.3467    1.0000 </r>
       <r>    1.3467    1.0000 </r>
       <r>    1.3766    1.0000 </r>
       <r>    1.7984    1.0000 </r>
       <r>    1.7984    1.0000 </r>
       <r>    1.8751    1.0000 </r>
       <r>    4.3920    1.0000 </r>
       <r>    4.7738    1.0000 </r>
       <r>    4.8194    1.0000 </r>
       <r>    6.7497    1.0000 </r>
       <r>    6.9802    1.0000 </r>
       <r>    7.4355    1.0000 </r>
       <r>    7.4963    1.0000 </r>
       <r>    7.4963    1.0000 </r>
       <r>    8.2629    0.9967 </r>
       <r>    8.4442    1.0172 </r>
       <r>    8.4442    1.0172 </r>
       <r>    8.9911   -0.0270 </r>
       <r>    8.9911   -0.0270 </r>
       <r>    9.0858    0.0026 </r>
       <r>   11.0078    0.0000 </r>
       <r>   11.0078    0.0000 </r>
       <r>   12.6808    0.0000 </r>
      </set>
      <set comment="kpoint 21">
       <r>   -1.3670    1.0000 </r>
       <r>    1.4257    1.0000 </r>
       <r>    1.4951    1.0000 </r>
       <r>    1.5000    1.0000 </r>
       <r>    1.8827    1.0000 </r>
       <r>    1.9334    1.0000 </r>
       <r>    2.0308    1.0000 </r>
       <r>    4.2879    1.0000 </r>
       <r>    4.8632    1.0000 </r>
       <r>    4.9055    1.0000 </r>
       <r>    6.6387    1.0000 </r>
       <r>    6.8790    1.0000 </r>
       <r>    6.9820    1.0000 </r>
       <r>    7.0303    1.0000 </r>
       <r>    7.1139    1.0000 </r>
       <r>    8.0637    0.9999 </r>
       <r>    8.2492    0.9972 </r>
       <r>    8.3311    0.9951 </r>
       <r>    8.7724    0.2757 </r>
       <r>    8.9807   -0.0319 </r>
       <r>    9.0280   -0.0110 </r>
       <r>   10.4032    0.0000 </r>
       <r>   11.6801    0.0000 </r>
       <r>   13.2930    0.0000 </r>
      </set>
      <set comment="kpoint 22">
       <r>   -1.1033    1.0000 </r>
       <r>    1.5135    1.0000 </r>
       <r>    1.6518    1.0000 </r>
       <r>    1.6951    1.0000 </r>
       <r>    1.9933    1.0000 </r>
       <r>    2.1122    1.0000 </r>
       <r>    2.2283    1.0000 </r>
       <r>    4.1398    1.0000 </r>
       <r>    4.9990    1.0000 </r>
       <r>    5.0143    1.0000 </r>
       <r>    6.2825    1.0000 </r>
       <r>    6.4767    1.0000 </r>
       <r>    6.4831    1.0000 </r>
       <r>    6.6711    1.0000 </r>
       <r>    7.1210    1.0000 </r>
       <r>    7.8128    1.0000 </r>
       <r>    7.9961    1.0000 </r>
       <r>    8.1299    0.9997 </r>
       <r>    8.5291    1.0512 </r>
       <r>    8.9729   -0.0356 </r>
       <r>    8.9931   -0.0260 </r>
       <r>    9.8175    0.0000 </r>
       <r>   12.3376    0.0000 </r>
       <r>   13.9595    0.0000 </r>
      </set>
      <set comment="kpoint 23">
       <r>   -0.7835    1.0000 </r>
       <r>    1.5910    1.0000 </r>
       <r>    1.8442    1.0000 </r>
       <r>    1.9226    1.0000 </r>
       <r>    2.1287    1.0000 </r>
       <r>    2.3334    1.0000 </r>
       <r>    2.4586    1.0000 </r>
       <r>    3.9596    1.0000 </r>
       <r>    5.1321    1.0000 </r>
       <r>    5.1760    1.0000 </r>
       <r>    5.7137    1.0000 </r>
       <r>    5.9559    1.0000 </r>
       <r>    6.2039    1.0000 </r>
       <r>    6.3164    1.0000 </r>
       <r>    7.2393    1.0000 </r>
       <r>    7.5237    1.0000 </r>
       <r>    7.7000    1.0000 </r>
       <r>    7.8504    1.0000 </r>
       <r>    8.2600    0.9968 </r>
       <r>    8.9672   -0.0383 </r>
       <r>    8.9728   -0.0357 </r>
       <r>    9.3071    0.0005 </r>
       <r>   12.9607    0.0000 </r>
       <r>   14.6464    0.0000 </r>
      </set>
      <set comment="kpoint 24">
       <r>   -0.4159    1.0000 </r>
       <r>    1.6295    1.0000 </r>
       <r>    2.0664    1.0000 </r>
       <r>    2.1679    1.0000 </r>
       <r>    2.2870    1.0000 </r>
       <r>    2.5950    1.0000 </r>
       <r>    2.7092    1.0000 </r>
       <r>    3.7569    1.0000 </r>
       <r>    5.1780    1.0000 </r>
       <r>    5.2315    1.0000 </r>
       <r>    5.3873    1.0000 </r>
       <r>    5.4402    1.0000 </r>
       <r>    5.7602    1.0000 </r>
       <r>    6.1861    1.0000 </r>
       <r>    7.2203    1.0000 </r>
       <r>    7.3798    1.0000 </r>
       <r>    7.3833    1.0000 </r>
       <r>    7.5252    1.0000 </r>
       <r>    7.9425    1.0000 </r>
       <r>    8.9004   -0.0479 </r>
       <r>    8.9615   -0.0408 </r>
       <r>    8.9628   -0.0403 </r>
       <r>   13.5281    0.0000 </r>
       <r>   15.2944    0.0000 </r>
      </set>
      <set comment="kpoint 25">
       <r>   -0.0129    1.0000 </r>
       <r>    1.5916    1.0000 </r>
       <r>    2.3059    1.0000 </r>
       <r>    2.4085    1.0000 </r>
       <r>    2.4656    1.0000 </r>
       <r>    2.8942    1.0000 </r>
       <r>    2.9660    1.0000 </r>
       <r>    3.5400    1.0000 </r>
       <r>    4.6812    1.0000 </r>
       <r>    4.9421    1.0000 </r>
       <r>    5.2567    1.0000 </r>
       <r>    5.3967    1.0000 </r>
       <r>    5.6301    1.0000 </r>
       <r>    6.1663    1.0000 </r>
       <r>    6.9377    1.0000 </r>
       <r>    7.0760    1.0000 </r>
       <r>    7.1829    1.0000 </r>
       <r>    7.5391    1.0000 </r>
       <r>    7.5809    1.0000 </r>
       <r>    8.5872    1.0225 </r>
       <r>    8.9557   -0.0433 </r>
       <r>    8.9593   -0.0418 </r>
       <r>   14.0178    0.0000 </r>
       <r>   15.3780    0.0000 </r>
      </set>
      <set comment="kpoint 26">
       <r>    0.4069    1.0000 </r>
       <r>    1.4428    1.0000 </r>
       <r>    2.5337    1.0000 </r>
       <r>    2.6084    1.0000 </r>
       <r>    2.6616    1.0000 </r>
       <r>    3.2209    1.0000 </r>
       <r>    3.2283    1.0000 </r>
       <r>    3.3159    1.0000 </r>
       <r>    4.2321    1.0000 </r>
       <r>    4.4698    1.0000 </r>
       <r>    5.1626    1.0000 </r>
       <r>    5.1910    1.0000 </r>
       <r>    5.9004    1.0000 </r>
       <r>    6.2979    1.0000 </r>
       <r>    6.7207    1.0000 </r>
       <r>    6.8168    1.0000 </r>
       <r>    6.8409    1.0000 </r>
       <r>    7.2080    1.0000 </r>
       <r>    7.7146    1.0000 </r>
       <r>    8.3326    0.9951 </r>
       <r>    8.9533   -0.0442 </r>
       <r>    8.9565   -0.0430 </r>
       <r>   14.4153    0.0000 </r>
       <r>   15.1791    0.0000 </r>
      </set>
      <set comment="kpoint 27">
       <r>    0.8157    1.0000 </r>
       <r>    1.1753    1.0000 </r>
       <r>    2.6919    1.0000 </r>
       <r>    2.7181    1.0000 </r>
       <r>    2.8715    1.0000 </r>
       <r>    3.0913    1.0000 </r>
       <r>    3.4872    1.0000 </r>
       <r>    3.5804    1.0000 </r>
       <r>    3.8583    1.0000 </r>
       <r>    4.0334    1.0000 </r>
       <r>    5.0742    1.0000 </r>
       <r>    5.1034    1.0000 </r>
       <r>    6.1946    1.0000 </r>
       <r>    6.5094    1.0000 </r>
       <r>    6.5419    1.0000 </r>
       <r>    6.6157    1.0000 </r>
       <r>    6.6507    1.0000 </r>
       <r>    6.8541    1.0000 </r>
       <r>    7.9047    1.0000 </r>
       <r>    8.1093    0.9998 </r>
       <r>    8.9531   -0.0443 </r>
       <r>    8.9543   -0.0438 </r>
       <r>   14.7239    0.0000 </r>
       <r>   14.9676    0.0000 </r>
      </set>
      <set comment="kpoint 28">
       <r>   -1.1709    1.0000 </r>
       <r>    1.5816    1.0000 </r>
       <r>    1.5816    1.0000 </r>
       <r>    1.5891    1.0000 </r>
       <r>    2.0141    1.0000 </r>
       <r>    2.0141    1.0000 </r>
       <r>    2.1959    1.0000 </r>
       <r>    4.2199    1.0000 </r>
       <r>    4.9251    1.0000 </r>
       <r>    4.9659    1.0000 </r>
       <r>    6.5193    1.0000 </r>
       <r>    6.5193    1.0000 </r>
       <r>    6.5792    1.0000 </r>
       <r>    6.6501    1.0000 </r>
       <r>    7.0611    1.0000 </r>
       <r>    7.8882    1.0000 </r>
       <r>    8.1719    0.9992 </r>
       <r>    8.1719    0.9992 </r>
       <r>    8.7462    0.4061 </r>
       <r>    8.7462    0.4061 </r>
       <r>    8.9139   -0.0513 </r>
       <r>   11.0444    0.0000 </r>
       <r>   11.0444    0.0000 </r>
       <r>   13.8480    0.0000 </r>
      </set>
      <set comment="kpoint 29">
       <r>   -0.9148    1.0000 </r>
       <r>    1.6726    1.0000 </r>
       <r>    1.7205    1.0000 </r>
       <r>    1.7806    1.0000 </r>
       <r>    2.1201    1.0000 </r>
       <r>    2.1882    1.0000 </r>
       <r>    2.3983    1.0000 </r>
       <r>    4.1055    1.0000 </r>
       <r>    5.0367    1.0000 </r>
       <r>    5.0405    1.0000 </r>
       <r>    5.9484    1.0000 </r>
       <r>    6.1164    1.0000 </r>
       <r>    6.2456    1.0000 </r>
       <r>    6.4645    1.0000 </r>
       <r>    7.1537    1.0000 </r>
       <r>    7.6672    1.0000 </r>
       <r>    7.9533    1.0000 </r>
       <r>    8.0123    1.0000 </r>
       <r>    8.4778    1.0328 </r>
       <r>    8.7273    0.5057 </r>
       <r>    8.8297    0.0576 </r>
       <r>   10.4238    0.0000 </r>
       <r>   11.6657    0.0000 </r>
       <r>   14.4686    0.0000 </r>
      </set>
      <set comment="kpoint 30">
       <r>   -0.6043    1.0000 </r>
       <r>    1.7531    1.0000 </r>
       <r>    1.8895    1.0000 </r>
       <r>    2.0135    1.0000 </r>
       <r>    2.2497    1.0000 </r>
       <r>    2.4034    1.0000 </r>
       <r>    2.6255    1.0000 </r>
       <r>    3.9527    1.0000 </r>
       <r>    5.1106    1.0000 </r>
       <r>    5.1988    1.0000 </r>
       <r>    5.4069    1.0000 </r>
       <r>    5.7049    1.0000 </r>
       <r>    5.8011    1.0000 </r>
       <r>    6.3322    1.0000 </r>
       <r>    7.2925    1.0000 </r>
       <r>    7.4112    1.0000 </r>
       <r>    7.6887    1.0000 </r>
       <r>    7.7701    1.0000 </r>
       <r>    8.1899    0.9989 </r>
       <r>    8.7143    0.5739 </r>
       <r>    8.7727    0.2743 </r>
       <r>    9.8655    0.0000 </r>
       <r>   12.2514    0.0000 </r>
       <r>   15.0959    0.0000 </r>
      </set>
      <set comment="kpoint 31">
       <r>   -0.2469    1.0000 </r>
       <r>    1.7928    1.0000 </r>
       <r>    2.0941    1.0000 </r>
       <r>    2.2670    1.0000 </r>
       <r>    2.4006    1.0000 </r>
       <r>    2.6569    1.0000 </r>
       <r>    2.8605    1.0000 </r>
       <r>    3.7727    1.0000 </r>
       <r>    4.9000    1.0000 </r>
       <r>    5.1518    1.0000 </r>
       <r>    5.3272    1.0000 </r>
       <r>    5.3424    1.0000 </r>
       <r>    5.3998    1.0000 </r>
       <r>    6.2361    1.0000 </r>
       <r>    7.1405    1.0000 </r>
       <r>    7.3982    1.0000 </r>
       <r>    7.4641    1.0000 </r>
       <r>    7.4694    1.0000 </r>
       <r>    7.8785    1.0000 </r>
       <r>    8.7053    0.6207 </r>
       <r>    8.7361    0.4591 </r>
       <r>    9.3907    0.0001 </r>
       <r>   12.7853    0.0000 </r>
       <r>   15.0375    0.0000 </r>
      </set>
      <set comment="kpoint 32">
       <r>    0.1457    1.0000 </r>
       <r>    1.7520    1.0000 </r>
       <r>    2.3280    1.0000 </r>
       <r>    2.5194    1.0000 </r>
       <r>    2.5702    1.0000 </r>
       <r>    2.9444    1.0000 </r>
       <r>    3.0813    1.0000 </r>
       <r>    3.5753    1.0000 </r>
       <r>    4.4349    1.0000 </r>
       <r>    4.8875    1.0000 </r>
       <r>    5.0342    1.0000 </r>
       <r>    5.1241    1.0000 </r>
       <r>    5.6350    1.0000 </r>
       <r>    6.2366    1.0000 </r>
       <r>    6.8890    1.0000 </r>
       <r>    7.1086    1.0000 </r>
       <r>    7.1424    1.0000 </r>
       <r>    7.5422    1.0000 </r>
       <r>    7.6614    1.0000 </r>
       <r>    8.6990    0.6528 </r>
       <r>    8.7138    0.5769 </r>
       <r>    8.9973   -0.0240 </r>
       <r>   13.2532    0.0000 </r>
       <r>   14.7553    0.0000 </r>
      </set>
      <set comment="kpoint 33">
       <r>    0.5568    1.0000 </r>
       <r>    1.5960    1.0000 </r>
       <r>    2.5738    1.0000 </r>
       <r>    2.7333    1.0000 </r>
       <r>    2.7555    1.0000 </r>
       <r>    3.2593    1.0000 </r>
       <r>    3.2662    1.0000 </r>
       <r>    3.3684    1.0000 </r>
       <r>    4.0271    1.0000 </r>
       <r>    4.4495    1.0000 </r>
       <r>    4.8688    1.0000 </r>
       <r>    5.0266    1.0000 </r>
       <r>    5.8984    1.0000 </r>
       <r>    6.3590    1.0000 </r>
       <r>    6.7017    1.0000 </r>
       <r>    6.8119    1.0000 </r>
       <r>    6.8552    1.0000 </r>
       <r>    7.1974    1.0000 </r>
       <r>    7.8801    1.0000 </r>
       <r>    8.6670    0.8022 </r>
       <r>    8.6950    0.6729 </r>
       <r>    8.7011    0.6422 </r>
       <r>   13.6475    0.0000 </r>
       <r>   14.4990    0.0000 </r>
      </set>
      <set comment="kpoint 34">
       <r>    0.9608    1.0000 </r>
       <r>    1.3217    1.0000 </r>
       <r>    2.7804    1.0000 </r>
       <r>    2.8444    1.0000 </r>
       <r>    2.9532    1.0000 </r>
       <r>    3.1592    1.0000 </r>
       <r>    3.4223    1.0000 </r>
       <r>    3.5373    1.0000 </r>
       <r>    3.7665    1.0000 </r>
       <r>    4.0418    1.0000 </r>
       <r>    4.8388    1.0000 </r>
       <r>    4.9103    1.0000 </r>
       <r>    6.1849    1.0000 </r>
       <r>    6.4906    1.0000 </r>
       <r>    6.5802    1.0000 </r>
       <r>    6.6246    1.0000 </r>
       <r>    6.6806    1.0000 </r>
       <r>    6.8684    1.0000 </r>
       <r>    8.1187    0.9998 </r>
       <r>    8.3788    0.9984 </r>
       <r>    8.6934    0.6807 </r>
       <r>    8.6950    0.6728 </r>
       <r>   13.9730    0.0000 </r>
       <r>   14.2477    0.0000 </r>
      </set>
      <set comment="kpoint 35">
       <r>   -0.6689    1.0000 </r>
       <r>    1.8249    1.0000 </r>
       <r>    1.8762    1.0000 </r>
       <r>    1.8762    1.0000 </r>
       <r>    2.2880    1.0000 </r>
       <r>    2.2880    1.0000 </r>
       <r>    2.6003    1.0000 </r>
       <r>    4.0335    1.0000 </r>
       <r>    5.0696    1.0000 </r>
       <r>    5.1215    1.0000 </r>
       <r>    5.5828    1.0000 </r>
       <r>    5.5828    1.0000 </r>
       <r>    5.9441    1.0000 </r>
       <r>    6.3925    1.0000 </r>
       <r>    7.2551    1.0000 </r>
       <r>    7.4799    1.0000 </r>
       <r>    7.8356    1.0000 </r>
       <r>    7.8356    1.0000 </r>
       <r>    8.4400    1.0154 </r>
       <r>    8.4400    1.0154 </r>
       <r>    8.6894    0.7002 </r>
       <r>   11.0128    0.0000 </r>
       <r>   11.0128    0.0000 </r>
       <r>   15.0290    0.0000 </r>
      </set>
      <set comment="kpoint 36">
       <r>   -0.3706    1.0000 </r>
       <r>    1.9610    1.0000 </r>
       <r>    1.9671    1.0000 </r>
       <r>    2.1158    1.0000 </r>
       <r>    2.4098    1.0000 </r>
       <r>    2.4954    1.0000 </r>
       <r>    2.8196    1.0000 </r>
       <r>    3.9219    1.0000 </r>
       <r>    5.0769    1.0000 </r>
       <r>    5.0938    1.0000 </r>
       <r>    5.2201    1.0000 </r>
       <r>    5.2553    1.0000 </r>
       <r>    5.5900    1.0000 </r>
       <r>    6.2929    1.0000 </r>
       <r>    7.2601    1.0000 </r>
       <r>    7.4183    1.0000 </r>
       <r>    7.6084    1.0000 </r>
       <r>    7.6377    1.0000 </r>
       <r>    8.1297    0.9997 </r>
       <r>    8.4157    1.0067 </r>
       <r>    8.5816    1.0292 </r>
       <r>   10.4187    0.0000 </r>
       <r>   11.5702    0.0000 </r>
       <r>   14.8365    0.0000 </r>
      </set>
      <set comment="kpoint 37">
       <r>   -0.0271    1.0000 </r>
       <r>    2.0020    1.0000 </r>
       <r>    2.1472    1.0000 </r>
       <r>    2.3793    1.0000 </r>
       <r>    2.5508    1.0000 </r>
       <r>    2.7389    1.0000 </r>
       <r>    3.0364    1.0000 </r>
       <r>    3.7777    1.0000 </r>
       <r>    4.6043    1.0000 </r>
       <r>    4.9021    1.0000 </r>
       <r>    5.0866    1.0000 </r>
       <r>    5.2046    1.0000 </r>
       <r>    5.4356    1.0000 </r>
       <r>    6.2180    1.0000 </r>
       <r>    7.0256    1.0000 </r>
       <r>    7.3500    1.0000 </r>
       <r>    7.3744    1.0000 </r>
       <r>    7.6259    1.0000 </r>
       <r>    7.8048    1.0000 </r>
       <r>    8.4005    1.0026 </r>
       <r>    8.5045    1.0446 </r>
       <r>    9.8999    0.0000 </r>
       <r>   12.0827    0.0000 </r>
       <r>   14.4583    0.0000 </r>
      </set>
      <set comment="kpoint 38">
       <r>    0.3510    1.0000 </r>
       <r>    1.9560    1.0000 </r>
       <r>    2.3633    1.0000 </r>
       <r>    2.6480    1.0000 </r>
       <r>    2.7079    1.0000 </r>
       <r>    3.0115    1.0000 </r>
       <r>    3.2231    1.0000 </r>
       <r>    3.6107    1.0000 </r>
       <r>    4.1729    1.0000 </r>
       <r>    4.6784    1.0000 </r>
       <r>    4.8080    1.0000 </r>
       <r>    5.0191    1.0000 </r>
       <r>    5.6545    1.0000 </r>
       <r>    6.2232    1.0000 </r>
       <r>    6.8079    1.0000 </r>
       <r>    7.0743    1.0000 </r>
       <r>    7.0850    1.0000 </r>
       <r>    7.4687    1.0000 </r>
       <r>    7.8656    1.0000 </r>
       <r>    8.3916    1.0006 </r>
       <r>    8.4525    1.0208 </r>
       <r>    9.4550    0.0000 </r>
       <r>   12.5390    0.0000 </r>
       <r>   14.1333    0.0000 </r>
      </set>
      <set comment="kpoint 39">
       <r>    0.7490    1.0000 </r>
       <r>    1.7889    1.0000 </r>
       <r>    2.6094    1.0000 </r>
       <r>    2.8780    1.0000 </r>
       <r>    2.8872    1.0000 </r>
       <r>    3.2950    1.0000 </r>
       <r>    3.3461    1.0000 </r>
       <r>    3.4302    1.0000 </r>
       <r>    3.8085    1.0000 </r>
       <r>    4.4164    1.0000 </r>
       <r>    4.5864    1.0000 </r>
       <r>    4.8914    1.0000 </r>
       <r>    5.9031    1.0000 </r>
       <r>    6.3342    1.0000 </r>
       <r>    6.6512    1.0000 </r>
       <r>    6.7644    1.0000 </r>
       <r>    6.8453    1.0000 </r>
       <r>    7.1321    1.0000 </r>
       <r>    8.1303    0.9997 </r>
       <r>    8.3880    1.0000 </r>
       <r>    8.4192    1.0078 </r>
       <r>    9.0700    0.0003 </r>
       <r>   12.9339    0.0000 </r>
       <r>   13.8450    0.0000 </r>
      </set>
      <set comment="kpoint 40">
       <r>    1.1447    1.0000 </r>
       <r>    1.5056    1.0000 </r>
       <r>    2.8624    1.0000 </r>
       <r>    3.0048    1.0000 </r>
       <r>    3.0580    1.0000 </r>
       <r>    3.2438    1.0000 </r>
       <r>    3.3873    1.0000 </r>
       <r>    3.4198    1.0000 </r>
       <r>    3.7345    1.0000 </r>
       <r>    4.0454    1.0000 </r>
       <r>    4.6216    1.0000 </r>
       <r>    4.7413    1.0000 </r>
       <r>    6.1736    1.0000 </r>
       <r>    6.4616    1.0000 </r>
       <r>    6.5396    1.0000 </r>
       <r>    6.5992    1.0000 </r>
       <r>    6.6702    1.0000 </r>
       <r>    6.8143    1.0000 </r>
       <r>    8.3902    1.0004 </r>
       <r>    8.3998    1.0024 </r>
       <r>    8.4174    1.0072 </r>
       <r>    8.7283    0.5003 </r>
       <r>   13.2716    0.0000 </r>
       <r>   13.5672    0.0000 </r>
      </set>
      <set comment="kpoint 41">
       <r>   -0.0874    1.0000 </r>
       <r>    2.0799    1.0000 </r>
       <r>    2.2065    1.0000 </r>
       <r>    2.2065    1.0000 </r>
       <r>    2.6076    1.0000 </r>
       <r>    2.6076    1.0000 </r>
       <r>    3.0255    1.0000 </r>
       <r>    3.8585    1.0000 </r>
       <r>    4.7592    1.0000 </r>
       <r>    4.7592    1.0000 </r>
       <r>    5.0742    1.0000 </r>
       <r>    5.3275    1.0000 </r>
       <r>    5.3568    1.0000 </r>
       <r>    6.2157    1.0000 </r>
       <r>    7.0770    1.0000 </r>
       <r>    7.4510    1.0000 </r>
[...]
       <r>    9.2788    0.0009 </r>
       <r>    9.6990    0.0000 </r>
       <r>    9.6990    0.0000 </r>
       <r>   10.0232    0.0000 </r>
      </set>
      <set comment="kpoint 217">
       <r>    0.8780    1.0000 </r>
       <r>    1.0632    1.0000 </r>
       <r>    1.0632    1.0000 </r>
       <r>    1.0632    1.0000 </r>
       <r>    4.3782    1.0000 </r>
       <r>    4.3782    1.0000 </r>
       <r>    4.3782    1.0000 </r>
       <r>    4.6006    1.0000 </r>
       <r>    4.6006    1.0000 </r>
       <r>    4.7104    1.0000 </r>
       <r>    4.7104    1.0000 </r>
       <r>    4.7104    1.0000 </r>
       <r>    6.8966    1.0000 </r>
       <r>    6.8966    1.0000 </r>
       <r>    6.8966    1.0000 </r>
       <r>    7.1581    1.0000 </r>
       <r>    8.5523    1.0493 </r>
       <r>    8.5523    1.0493 </r>
       <r>    8.7943    0.1789 </r>
       <r>    8.7943    0.1789 </r>
       <r>    8.7943    0.1789 </r>
       <r>    9.9412    0.0000 </r>
       <r>    9.9412    0.0000 </r>
       <r>    9.9412    0.0000 </r>
      </set>
      <set comment="kpoint 218">
       <r>    0.8990    1.0000 </r>
       <r>    0.9610    1.0000 </r>
       <r>    1.0212    1.0000 </r>
       <r>    1.0212    1.0000 </r>
       <r>    4.4100    1.0000 </r>
       <r>    4.4100    1.0000 </r>
       <r>    4.4768    1.0000 </r>
       <r>    4.5519    1.0000 </r>
       <r>    4.5987    1.0000 </r>
       <r>    4.6356    1.0000 </r>
       <r>    4.6624    1.0000 </r>
       <r>    4.6624    1.0000 </r>
       <r>    7.1368    1.0000 </r>
       <r>    7.1368    1.0000 </r>
       <r>    7.1785    1.0000 </r>
       <r>    7.3262    1.0000 </r>
       <r>    8.6950    0.6730 </r>
       <r>    8.7600    0.3358 </r>
       <r>    8.7600    0.3358 </r>
       <r>    8.7635    0.3186 </r>
       <r>    8.7770    0.2544 </r>
       <r>    9.2915    0.0007 </r>
       <r>    9.8699    0.0000 </r>
       <r>    9.8699    0.0000 </r>
      </set>
      <set comment="kpoint 219">
       <r>    0.8970    1.0000 </r>
       <r>    0.9379    1.0000 </r>
       <r>    0.9379    1.0000 </r>
       <r>    0.9580    1.0000 </r>
       <r>    4.4657    1.0000 </r>
       <r>    4.4883    1.0000 </r>
       <r>    4.4883    1.0000 </r>
       <r>    4.5419    1.0000 </r>
       <r>    4.5695    1.0000 </r>
       <r>    4.5965    1.0000 </r>
       <r>    4.5965    1.0000 </r>
       <r>    4.6056    1.0000 </r>
       <r>    7.4272    1.0000 </r>
       <r>    7.4603    1.0000 </r>
       <r>    7.4603    1.0000 </r>
       <r>    7.5883    1.0000 </r>
       <r>    8.6604    0.8290 </r>
       <r>    8.7394    0.4419 </r>
       <r>    8.7394    0.4419 </r>
       <r>    8.7429    0.4235 </r>
       <r>    8.9587   -0.0420 </r>
       <r>    9.3416    0.0002 </r>
       <r>    9.3416    0.0002 </r>
       <r>    9.5491    0.0000 </r>
      </set>
      <set comment="kpoint 220">
       <r>    0.8731    1.0000 </r>
       <r>    0.8935    1.0000 </r>
       <r>    0.8935    1.0000 </r>
       <r>    0.8935    1.0000 </r>
       <r>    4.5169    1.0000 </r>
       <r>    4.5169    1.0000 </r>
       <r>    4.5169    1.0000 </r>
       <r>    4.5427    1.0000 </r>
       <r>    4.5427    1.0000 </r>
       <r>    4.5548    1.0000 </r>
       <r>    4.5548    1.0000 </r>
       <r>    4.5548    1.0000 </r>
       <r>    7.8435    1.0000 </r>
       <r>    7.8435    1.0000 </r>
       <r>    7.8435    1.0000 </r>
       <r>    7.9918    1.0000 </r>
       <r>    8.7535    0.3686 </r>
       <r>    8.7535    0.3686 </r>
       <r>    8.7815    0.2339 </r>
       <r>    8.7815    0.2339 </r>
       <r>    8.7815    0.2339 </r>
       <r>    9.0489   -0.0044 </r>
       <r>    9.0489   -0.0044 </r>
       <r>    9.0489   -0.0044 </r>
      </set>
     </set>
    </set>
   </array>
  </eigenvalues>
  <separator name="orbital magnetization" >
   <v name="MAGDIPOLOUT">      0.00000000      0.00000000      0.00000000</v>
  </separator>
  <dos>
   <i name="efermi">      8.72836916 </i>
   <total>
    <array>
     <dimension dim="1">gridpoints</dimension>
     <dimension dim="2">spin</dimension>
     <field>energy</field>
     <field>total</field>
     <field>integrated</field>
     <set>
      <set comment="spin 1">
       <r>    -3.9858     0.0000     0.0000 </r>
       <r>    -3.9121     0.0000     0.0000 </r>
       <r>    -3.8385     0.0000     0.0000 </r>
       <r>    -3.7648     0.0000     0.0000 </r>
       <r>    -3.6912     0.0000     0.0000 </r>
       <r>    -3.6175     0.0000     0.0000 </r>
       <r>    -3.5439     0.0000     0.0000 </r>
       <r>    -3.4702     0.0000     0.0000 </r>
       <r>    -3.3965     0.0000     0.0000 </r>
       <r>    -3.3229     0.0000     0.0000 </r>
       <r>    -3.2492     0.0000     0.0000 </r>
       <r>    -3.1756     0.0000     0.0000 </r>
       <r>    -3.1019     0.0000     0.0000 </r>
       <r>    -3.0283     0.0000     0.0000 </r>
       <r>    -2.9546     0.0000     0.0000 </r>
       <r>    -2.8809     0.0000     0.0000 </r>
       <r>    -2.8073     0.0000     0.0000 </r>
       <r>    -2.7336     0.0000     0.0000 </r>
       <r>    -2.6600     0.0000     0.0000 </r>
       <r>    -2.5863     0.0000     0.0000 </r>
       <r>    -2.5127     0.0001     0.0000 </r>
       <r>    -2.4390     0.0002     0.0000 </r>
       <r>    -2.3653     0.0004     0.0000 </r>
       <r>    -2.2917     0.0001     0.0000 </r>
       <r>    -2.2180    -0.0015    -0.0001 </r>
       <r>    -2.1444    -0.0033    -0.0003 </r>
       <r>    -2.0707     0.0004    -0.0003 </r>
       <r>    -1.9971     0.0168     0.0010 </r>
       <r>    -1.9234     0.0460     0.0044 </r>
       <r>    -1.8497     0.0795     0.0102 </r>
       <r>    -1.7761     0.1075     0.0181 </r>
       <r>    -1.7024     0.1266     0.0275 </r>
       <r>    -1.6288     0.1431     0.0380 </r>
       <r>    -1.5551     0.1624     0.0500 </r>
       <r>    -1.4815     0.1777     0.0631 </r>
       <r>    -1.4078     0.1857     0.0767 </r>
       <r>    -1.3341     0.1988     0.0914 </r>
       <r>    -1.2605     0.2224     0.1078 </r>
       <r>    -1.1868     0.2420     0.1256 </r>
       <r>    -1.1132     0.2439     0.1435 </r>
       <r>    -1.0395     0.2421     0.1614 </r>
       <r>    -0.9659     0.2647     0.1809 </r>
       <r>    -0.8922     0.3047     0.2033 </r>
       <r>    -0.8185     0.3192     0.2268 </r>
       <r>    -0.7449     0.3020     0.2491 </r>
       <r>    -0.6712     0.3005     0.2712 </r>
       <r>    -0.5976     0.3378     0.2961 </r>
       <r>    -0.5239     0.3770     0.3238 </r>
       <r>    -0.4503     0.3901     0.3526 </r>
       <r>    -0.3766     0.3923     0.3815 </r>
       <r>    -0.3029     0.3941     0.4105 </r>
       <r>    -0.2293     0.3971     0.4398 </r>
       <r>    -0.1556     0.4241     0.4710 </r>
       <r>    -0.0820     0.4837     0.5066 </r>
       <r>    -0.0083     0.5276     0.5455 </r>
       <r>     0.0653     0.5099     0.5830 </r>
       <r>     0.1390     0.4761     0.6181 </r>
       <r>     0.2127     0.5120     0.6558 </r>
       <r>     0.2863     0.6070     0.7005 </r>
       <r>     0.3600     0.6630     0.7494 </r>
       <r>     0.4336     0.6518     0.7974 </r>
       <r>     0.5073     0.6582     0.8459 </r>
       <r>     0.5809     0.7217     0.8990 </r>
       <r>     0.6546     0.7770     0.9562 </r>
       <r>     0.7283     0.8368     1.0179 </r>
       <r>     0.8019     1.0355     1.0942 </r>
       <r>     0.8756     1.3962     1.1970 </r>
       <r>     0.9492     1.7544     1.3262 </r>
       <r>     1.0229     1.9980     1.4734 </r>
       <r>     1.0965     2.2012     1.6355 </r>
       <r>     1.1702     2.4329     1.8147 </r>
       <r>     1.2439     2.6577     2.0105 </r>
       <r>     1.3175     2.8899     2.2233 </r>
       <r>     1.3912     3.1901     2.4583 </r>
       <r>     1.4648     3.5292     2.7183 </r>
       <r>     1.5385     3.8576     3.0024 </r>
       <r>     1.6121     4.1954     3.3114 </r>
       <r>     1.6858     4.5624     3.6475 </r>
       <r>     1.7595     4.9517     4.0122 </r>
       <r>     1.8331     5.3223     4.4042 </r>
       <r>     1.9068     5.5757     4.8149 </r>
       <r>     1.9804     5.6613     5.2319 </r>
       <r>     2.0541     5.6166     5.6456 </r>
       <r>     2.1277     5.4717     6.0486 </r>
       <r>     2.2014     5.2664     6.4366 </r>
       <r>     2.2751     5.0969     6.8120 </r>
       <r>     2.3487     4.9869     7.1793 </r>
       <r>     2.4224     4.8655     7.5377 </r>
       <r>     2.4960     4.7878     7.8903 </r>
       <r>     2.5697     4.8501     8.2476 </r>
       <r>     2.6433     4.8579     8.6054 </r>
       <r>     2.7170     4.5833     8.9430 </r>
       <r>     2.7907     4.1938     9.2519 </r>
       <r>     2.8643     3.8823     9.5379 </r>
       <r>     2.9380     3.5342     9.7982 </r>
       <r>     3.0116     3.1844    10.0327 </r>
       <r>     3.0853     3.2056    10.2688 </r>
       <r>     3.1589     3.7780    10.5471 </r>
       <r>     3.2326     4.5321    10.8809 </r>
       <r>     3.3063     4.9184    11.2432 </r>
       <r>     3.3799     4.8715    11.6020 </r>
       <r>     3.4536     4.8017    11.9557 </r>
       <r>     3.5272     4.9258    12.3185 </r>
       <r>     3.6009     5.0778    12.6926 </r>
       <r>     3.6745     5.1305    13.0705 </r>
       <r>     3.7482     5.1032    13.4463 </r>
       <r>     3.8219     5.0134    13.8156 </r>
       <r>     3.8955     4.9870    14.1830 </r>
       <r>     3.9692     5.1928    14.5654 </r>
       <r>     4.0428     5.5022    14.9707 </r>
       <r>     4.1165     5.6051    15.3836 </r>
       <r>     4.1901     5.4534    15.7853 </r>
       <r>     4.2638     5.3275    16.1777 </r>
       <r>     4.3375     5.5134    16.5838 </r>
       <r>     4.4111     5.9633    17.0230 </r>
       <r>     4.4848     6.3427    17.4902 </r>
       <r>     4.5584     6.4641    17.9663 </r>
       <r>     4.6321     6.4937    18.4446 </r>
       <r>     4.7057     6.6740    18.9362 </r>
       <r>     4.7794     7.0708    19.4570 </r>
       <r>     4.8531     7.6758    20.0224 </r>
       <r>     4.9267     8.4517    20.6449 </r>
       <r>     5.0004     9.0894    21.3144 </r>
       <r>     5.0740     9.0344    21.9799 </r>
       <r>     5.1477     8.0522    22.5730 </r>
       <r>     5.2213     6.6417    23.0622 </r>
       <r>     5.2950     5.6131    23.4757 </r>
       <r>     5.3687     5.2427    23.8618 </r>
       <r>     5.4423     5.1105    24.2382 </r>
       <r>     5.5160     4.8369    24.5945 </r>
       <r>     5.5896     4.5221    24.9276 </r>
       <r>     5.6633     4.3159    25.2455 </r>
       <r>     5.7369     4.1632    25.5521 </r>
       <r>     5.8106     4.0992    25.8541 </r>
       <r>     5.8843     4.1713    26.1613 </r>
       <r>     5.9579     4.1814    26.4693 </r>
       <r>     6.0316     4.0609    26.7684 </r>
       <r>     6.1052     4.1073    27.0710 </r>
       <r>     6.1789     4.4647    27.3998 </r>
       <r>     6.2526     4.8470    27.7568 </r>
       <r>     6.3262     4.9926    28.1246 </r>
       <r>     6.3999     5.0606    28.4973 </r>
       <r>     6.4735     5.3559    28.8918 </r>
       <r>     6.5472     5.8118    29.3199 </r>
       <r>     6.6208     6.0498    29.7655 </r>
       <r>     6.6945     5.8838    30.1989 </r>
       <r>     6.7682     5.4293    30.5988 </r>
       <r>     6.8418     4.8632    30.9570 </r>
       <r>     6.9155     4.4252    31.2830 </r>
       <r>     6.9891     4.3514    31.6035 </r>
       <r>     7.0628     4.5470    31.9384 </r>
       <r>     7.1364     4.6471    32.2807 </r>
       <r>     7.2101     4.4660    32.6096 </r>
       <r>     7.2838     4.1704    32.9168 </r>
       <r>     7.3574     4.0128    33.2124 </r>
       <r>     7.4311     4.0297    33.5092 </r>
       <r>     7.5047     4.0962    33.8109 </r>
       <r>     7.5784     4.0959    34.1126 </r>
       <r>     7.6520     3.9733    34.4053 </r>
       <r>     7.7257     3.8546    34.6892 </r>
       <r>     7.7994     3.9515    34.9803 </r>
       <r>     7.8730     4.1741    35.2877 </r>
       <r>     7.9467     4.2493    35.6007 </r>
       <r>     8.0203     4.2160    35.9112 </r>
       <r>     8.0940     4.2728    36.2260 </r>
       <r>     8.1676     4.3620    36.5473 </r>
       <r>     8.2413     4.4490    36.8750 </r>
       <r>     8.3150     4.7842    37.2273 </r>
       <r>     8.3886     5.4413    37.6281 </r>
       <r>     8.4623     6.1023    38.0776 </r>
       <r>     8.5359     6.6009    38.5638 </r>
       <r>     8.6096     7.1410    39.0898 </r>
       <r>     8.6832     7.6535    39.6535 </r>
       <r>     8.7569     7.5666    40.2109 </r>
       <r>     8.8306     6.6915    40.7037 </r>
       <r>     8.9042     5.6098    41.1169 </r>
       <r>     8.9779     4.7872    41.4696 </r>
       <r>     9.0515     4.1192    41.7730 </r>
       <r>     9.1252     3.4466    42.0268 </r>
       <r>     9.1988     2.7579    42.2300 </r>
       <r>     9.2725     2.0914    42.3840 </r>
       <r>     9.3462     1.6168    42.5031 </r>
       <r>     9.4198     1.4316    42.6086 </r>
       <r>     9.4935     1.3096    42.7050 </r>
       <r>     9.5671     1.0225    42.7803 </r>
       <r>     9.6408     0.6941    42.8315 </r>
       <r>     9.7144     0.5981    42.8755 </r>
       <r>     9.7881     0.8391    42.9373 </r>
       <r>     9.8618     1.2712    43.0310 </r>
       <r>     9.9354     1.5460    43.1448 </r>
       <r>    10.0091     1.3897    43.2472 </r>
       <r>    10.0827     0.9319    43.3158 </r>
       <r>    10.1564     0.5830    43.3588 </r>
       <r>    10.2300     0.6363    43.4056 </r>
       <r>    10.3037     1.0453    43.4826 </r>
       <r>    10.3774     1.4291    43.5879 </r>
       <r>    10.4510     1.4010    43.6911 </r>
       <r>    10.5247     1.0224    43.7664 </r>
       <r>    10.5983     0.7329    43.8204 </r>
       <r>    10.6720     0.8165    43.8805 </r>
       <r>    10.7456     1.1222    43.9632 </r>
       <r>    10.8193     1.2845    44.0578 </r>
       <r>    10.8930     1.1532    44.1427 </r>
       <r>    10.9666     0.9453    44.2124 </r>
       <r>    11.0403     0.9306    44.2809 </r>
       <r>    11.1139     1.1041    44.3622 </r>
       <r>    11.1876     1.2243    44.4524 </r>
       <r>    11.2612     1.1056    44.5338 </r>
       <r>    11.3349     0.8542    44.5968 </r>
       <r>    11.4086     0.7666    44.6532 </r>
       <r>    11.4822     0.9713    44.7248 </r>
       <r>    11.5559     1.2434    44.8164 </r>
       <r>    11.6295     1.2709    44.9100 </r>
       <r>    11.7032     1.0707    44.9888 </r>
       <r>    11.7768     0.9377    45.0579 </r>
       <r>    11.8505     0.9955    45.1312 </r>
       <r>    11.9242     1.0725    45.2102 </r>
       <r>    11.9978     1.0199    45.2853 </r>
       <r>    12.0715     0.8972    45.3514 </r>
       <r>    12.1451     0.8317    45.4127 </r>
       <r>    12.2188     0.8858    45.4779 </r>
       <r>    12.2924     1.0426    45.5547 </r>
       <r>    12.3661     1.1858    45.6421 </r>
       <r>    12.4398     1.1793    45.7289 </r>
       <r>    12.5134     1.0338    45.8051 </r>
       <r>    12.5871     0.8837    45.8702 </r>
       <r>    12.6607     0.8104    45.9299 </r>
       <r>    12.7344     0.8186    45.9902 </r>
       <r>    12.8080     0.9099    46.0572 </r>
       <r>    12.8817     1.0346    46.1334 </r>
       <r>    12.9554     1.0626    46.2116 </r>
       <r>    13.0290     0.9317    46.2803 </r>
       <r>    13.1027     0.7671    46.3368 </r>
       <r>    13.1763     0.7497    46.3920 </r>
       <r>    13.2500     0.8922    46.4577 </r>
       <r>    13.3236     1.0250    46.5332 </r>
       <r>    13.3973     1.0024    46.6070 </r>
       <r>    13.4710     0.8758    46.6716 </r>
       <r>    13.5446     0.7941    46.7300 </r>
       <r>    13.6183     0.7842    46.7878 </r>
       <r>    13.6919     0.7755    46.8449 </r>
       <r>    13.7656     0.7595    46.9009 </r>
       <r>    13.8392     0.7724    46.9578 </r>
       <r>    13.9129     0.8052    47.0171 </r>
       <r>    13.9866     0.8165    47.0772 </r>
       <r>    14.0602     0.7887    47.1353 </r>
       <r>    14.1339     0.7517    47.1907 </r>
       <r>    14.2075     0.7445    47.2455 </r>
       <r>    14.2812     0.7523    47.3009 </r>
       <r>    14.3548     0.7320    47.3548 </r>
       <r>    14.4285     0.6920    47.4058 </r>
       <r>    14.5022     0.6727    47.4554 </r>
       <r>    14.5758     0.6772    47.5052 </r>
       <r>    14.6495     0.6843    47.5556 </r>
       <r>    14.7231     0.6858    47.6062 </r>
       <r>    14.7968     0.6753    47.6559 </r>
       <r>    14.8704     0.6413    47.7031 </r>
       <r>    14.9441     0.5875    47.7464 </r>
       <r>    15.0178     0.5261    47.7852 </r>
       <r>    15.0914     0.4560    47.8187 </r>
       <r>    15.1651     0.3763    47.8465 </r>
       <r>    15.2387     0.3015    47.8687 </r>
       <r>    15.3124     0.2493    47.8870 </r>
       <r>    15.3860     0.2276    47.9038 </r>
       <r>    15.4597     0.2221    47.9202 </r>
       <r>    15.5334     0.2084    47.9355 </r>
       <r>    15.6070     0.1830    47.9490 </r>
       <r>    15.6807     0.1536    47.9603 </r>
       <r>    15.7543     0.1155    47.9688 </r>
       <r>    15.8280     0.0714    47.9741 </r>
       <r>    15.9016     0.0478    47.9776 </r>
       <r>    15.9753     0.0605    47.9820 </r>
       <r>    16.0490     0.0863    47.9884 </r>
       <r>    16.1226     0.0884    47.9949 </r>
       <r>    16.1963     0.0582    47.9992 </r>
       <r>    16.2699     0.0195    48.0006 </r>
       <r>    16.3436    -0.0025    48.0004 </r>
       <r>    16.4172    -0.0054    48.0001 </r>
       <r>    16.4909    -0.0017    47.9999 </r>
       <r>    16.5646     0.0003    47.9999 </r>
       <r>    16.6382     0.0005    48.0000 </r>
       <r>    16.7119     0.0002    48.0000 </r>
       <r>    16.7855     0.0000    48.0000 </r>
       <r>    16.8592     0.0000    48.0000 </r>
       <r>    16.9328     0.0000    48.0000 </r>
       <r>    17.0065     0.0000    48.0000 </r>
       <r>    17.0802     0.0000    48.0000 </r>
       <r>    17.1538     0.0000    48.0000 </r>
       <r>    17.2275     0.0000    48.0000 </r>
       <r>    17.3011     0.0000    48.0000 </r>
       <r>    17.3748     0.0000    48.0000 </r>
       <r>    17.4484     0.0000    48.0000 </r>
       <r>    17.5221     0.0000    48.0000 </r>
       <r>    17.5958     0.0000    48.0000 </r>
       <r>    17.6694     0.0000    48.0000 </r>
       <r>    17.7431     0.0000    48.0000 </r>
       <r>    17.8167     0.0000    48.0000 </r>
       <r>    17.8904     0.0000    48.0000 </r>
       <r>    17.9640     0.0000    48.0000 </r>
       <r>    18.0377     0.0000    48.0000 </r>
       <r>    18.1114     0.0000    48.0000 </r>
      </set>
     </set>
    </array>
   </total>
  </dos>
 </calculation>
 <structure name="finalpos" >
  <crystal>
   <varray name="basis" >
    <v>       3.86000000       0.00000000       0.00000000 </v>
    <v>       0.00000000       3.86000000       0.00000000 </v>
    <v>       0.00000000       0.00000000       3.86000000 </v>
   </varray>
   <i name="volume">     57.51245600 </i>
   <varray name="rec_basis" >
    <v>       0.25906736       0.00000000       0.00000000 </v>
    <v>       0.00000000       0.25906736       0.00000000 </v>
    <v>       0.00000000       0.00000000       0.25906736 </v>
   </varray>
  </crystal>
  <varray name="positions" >
   <v>       0.00000000       0.00000000       0.00000000 </v>
   <v>       0.00000000       0.50000000       0.50000000 </v>
   <v>       0.50000000       0.00000000       0.50000000 </v>
   <v>       0.50000000       0.50000000       0.00000000 </v>
  </varray>
 </structure>
</modeling>
