<?xml version="1.0" encoding="ISO-8859-1"?>
<modeling>
 <generator>
  <i name="program" type="string">vasp </i>
  <i name="version" type="string">5.4.4.18Apr17-6-g9f103f2a35  </i>
  <i name="subversion" type="string">(build Apr 17 2018 18:25:23) complex            parallel </i>
  <i name="platform" type="string">LinuxIFC </i>
  <i name="date" type="string">2019 01 22 </i>
  <i name="time" type="string">12:57:34 </i>
 </generator>
 <incar>
  <i type="string" name="SYSTEM"> Pt bulk calculation</i>
  <i type="int" name="ISTART">     0</i>
  <i type="string" name="PREC">normal</i>
  <i type="string" name="ALGO"> NORMAL</i>
  <i type="int" name="ICHARG">     2</i>
  <i type="int" name="INIWAV">     1</i>
  <i type="int" name="NELMIN">    10</i>
  <i type="int" name="IBRION">     2</i>
  <i name="EDIFF">      0.00000100</i>
  <i name="EDIFFG">     -0.02000000</i>
  <i type="int" name="NSW">    10</i>
  <i name="ENCUT">    450.00000000</i>
  <i name="POTIM">      0.20000000</i>
  <i type="int" name="ISMEAR">     2</i>
  <i name="SIGMA">      0.20000000</i>
  <v type="int" name="KPOINT_BSE">    -1     0     0     0</v>
  <i type="string" name="GGA"> 91</i>
 </incar>
 <structure name="primitive_cell" >
  <crystal>
   <varray name="basis" >
    <v>       2.11000000       2.11000000      -0.00000000 </v>
    <v>       2.11000000       0.00000000      -2.11000000 </v>
    <v>       0.00000000       2.11000000      -2.11000000 </v>
   </varray>
   <i name="volume">     18.78786200 </i>
   <varray name="rec_basis" >
    <v>       0.23696682       0.23696682       0.23696682 </v>
    <v>       0.23696682      -0.23696682      -0.23696682 </v>
    <v>      -0.23696682       0.23696682      -0.23696682 </v>
   </varray>
  </crystal>
  <varray name="positions" >
   <v>       0.00000000       0.00000000       0.00000000 </v>
  </varray>
 </structure>
 <varray name="primitive_index" >
  <v type="int" >        1 </v>
 </varray>
 <kpoints>
  <generation param="Monkhorst-Pack">
   <v type="int" name="divisions">      16       16       16 </v>
   <v name="usershift">      0.00000000       0.00000000       0.00000000 </v>
   <v name="genvec1">      0.06250000       0.00000000       0.00000000 </v>
   <v name="genvec2">      0.00000000       0.06250000       0.00000000 </v>
   <v name="genvec3">      0.00000000       0.00000000       0.06250000 </v>
   <v name="shift">      0.50000000       0.50000000       0.50000000 </v>
  </generation>
  <varray name="kpointlist" >
   <v>       0.03125000       0.03125000       0.03125000 </v>
   <v>       0.09375000       0.03125000       0.03125000 </v>
   <v>       0.15625000       0.03125000       0.03125000 </v>
   <v>       0.21875000       0.03125000       0.03125000 </v>
   <v>       0.28125000       0.03125000       0.03125000 </v>
   <v>       0.34375000       0.03125000       0.03125000 </v>
   <v>       0.40625000       0.03125000       0.03125000 </v>
   <v>       0.46875000       0.03125000       0.03125000 </v>
   <v>       0.09375000       0.09375000       0.03125000 </v>
   <v>       0.15625000       0.09375000       0.03125000 </v>
   <v>       0.21875000       0.09375000       0.03125000 </v>
   <v>       0.28125000       0.09375000       0.03125000 </v>
   <v>       0.34375000       0.09375000       0.03125000 </v>
   <v>       0.40625000       0.09375000       0.03125000 </v>
   <v>       0.46875000       0.09375000       0.03125000 </v>
   <v>       0.15625000       0.15625000       0.03125000 </v>
   <v>       0.21875000       0.15625000       0.03125000 </v>
   <v>       0.28125000       0.15625000       0.03125000 </v>
   <v>       0.34375000       0.15625000       0.03125000 </v>
   <v>       0.40625000       0.15625000       0.03125000 </v>
   <v>       0.46875000       0.15625000       0.03125000 </v>
   <v>       0.21875000       0.21875000       0.03125000 </v>
   <v>       0.28125000       0.21875000       0.03125000 </v>
   <v>       0.34375000       0.21875000       0.03125000 </v>
   <v>       0.40625000       0.21875000       0.03125000 </v>
   <v>       0.46875000       0.21875000       0.03125000 </v>
   <v>       0.28125000       0.28125000       0.03125000 </v>
   <v>       0.34375000       0.28125000       0.03125000 </v>
   <v>       0.40625000       0.28125000       0.03125000 </v>
   <v>       0.46875000       0.28125000       0.03125000 </v>
   <v>       0.34375000       0.34375000       0.03125000 </v>
   <v>       0.40625000       0.34375000       0.03125000 </v>
   <v>       0.46875000       0.34375000       0.03125000 </v>
   <v>       0.40625000       0.40625000       0.03125000 </v>
   <v>       0.46875000       0.40625000       0.03125000 </v>
   <v>       0.46875000       0.46875000       0.03125000 </v>
   <v>       0.09375000       0.09375000       0.09375000 </v>
   <v>       0.15625000       0.09375000       0.09375000 </v>
   <v>       0.21875000       0.09375000       0.09375000 </v>
   <v>       0.28125000       0.09375000       0.09375000 </v>
   <v>       0.34375000       0.09375000       0.09375000 </v>
   <v>       0.40625000       0.09375000       0.09375000 </v>
   <v>       0.46875000       0.09375000       0.09375000 </v>
   <v>       0.15625000       0.15625000       0.09375000 </v>
   <v>       0.21875000       0.15625000       0.09375000 </v>
   <v>       0.28125000       0.15625000       0.09375000 </v>
   <v>       0.34375000       0.15625000       0.09375000 </v>
   <v>       0.40625000       0.15625000       0.09375000 </v>
   <v>       0.46875000       0.15625000       0.09375000 </v>
   <v>       0.21875000       0.21875000       0.09375000 </v>
   <v>       0.28125000       0.21875000       0.09375000 </v>
   <v>       0.34375000       0.21875000       0.09375000 </v>
   <v>       0.40625000       0.21875000       0.09375000 </v>
   <v>       0.46875000       0.21875000       0.09375000 </v>
   <v>       0.28125000       0.28125000       0.09375000 </v>
   <v>       0.34375000       0.28125000       0.09375000 </v>
   <v>       0.40625000       0.28125000       0.09375000 </v>
   <v>       0.46875000       0.28125000       0.09375000 </v>
   <v>       0.34375000       0.34375000       0.09375000 </v>
   <v>       0.40625000       0.34375000       0.09375000 </v>
   <v>       0.46875000       0.34375000       0.09375000 </v>
   <v>       0.40625000       0.40625000       0.09375000 </v>
   <v>       0.46875000       0.40625000       0.09375000 </v>
   <v>       0.46875000       0.46875000       0.09375000 </v>
   <v>       0.15625000       0.15625000       0.15625000 </v>
   <v>       0.21875000       0.15625000       0.15625000 </v>
   <v>       0.28125000       0.15625000       0.15625000 </v>
   <v>       0.34375000       0.15625000       0.15625000 </v>
   <v>       0.40625000       0.15625000       0.15625000 </v>
   <v>       0.46875000       0.15625000       0.15625000 </v>
   <v>       0.21875000       0.21875000       0.15625000 </v>
   <v>       0.28125000       0.21875000       0.15625000 </v>
   <v>       0.34375000       0.21875000       0.15625000 </v>
   <v>       0.40625000       0.21875000       0.15625000 </v>
   <v>       0.46875000       0.21875000       0.15625000 </v>
   <v>       0.28125000       0.28125000       0.15625000 </v>
   <v>       0.34375000       0.28125000       0.15625000 </v>
   <v>       0.40625000       0.28125000       0.15625000 </v>
   <v>       0.46875000       0.28125000       0.15625000 </v>
   <v>       0.34375000       0.34375000       0.15625000 </v>
   <v>       0.40625000       0.34375000       0.15625000 </v>
   <v>       0.46875000       0.34375000       0.15625000 </v>
   <v>       0.40625000       0.40625000       0.15625000 </v>
   <v>       0.46875000       0.40625000       0.15625000 </v>
   <v>       0.46875000       0.46875000       0.15625000 </v>
   <v>       0.21875000       0.21875000       0.21875000 </v>
   <v>       0.28125000       0.21875000       0.21875000 </v>
   <v>       0.34375000       0.21875000       0.21875000 </v>
   <v>       0.40625000       0.21875000       0.21875000 </v>
   <v>       0.46875000       0.21875000       0.21875000 </v>
   <v>       0.28125000       0.28125000       0.21875000 </v>
   <v>       0.34375000       0.28125000       0.21875000 </v>
   <v>       0.40625000       0.28125000       0.21875000 </v>
   <v>       0.46875000       0.28125000       0.21875000 </v>
   <v>       0.34375000       0.34375000       0.21875000 </v>
   <v>       0.40625000       0.34375000       0.21875000 </v>
   <v>       0.46875000       0.34375000       0.21875000 </v>
   <v>       0.40625000       0.40625000       0.21875000 </v>
   <v>       0.46875000       0.40625000       0.21875000 </v>
   <v>       0.46875000       0.46875000       0.21875000 </v>
   <v>       0.28125000       0.28125000       0.28125000 </v>
   <v>       0.34375000       0.28125000       0.28125000 </v>
   <v>       0.40625000       0.28125000       0.28125000 </v>
   <v>       0.46875000       0.28125000       0.28125000 </v>
   <v>       0.34375000       0.34375000       0.28125000 </v>
   <v>       0.40625000       0.34375000       0.28125000 </v>
   <v>       0.46875000       0.34375000       0.28125000 </v>
   <v>       0.40625000       0.40625000       0.28125000 </v>
   <v>       0.46875000       0.40625000       0.28125000 </v>
   <v>       0.46875000       0.46875000       0.28125000 </v>
   <v>       0.34375000       0.34375000       0.34375000 </v>
   <v>       0.40625000       0.34375000       0.34375000 </v>
   <v>       0.46875000       0.34375000       0.34375000 </v>
   <v>       0.40625000       0.40625000       0.34375000 </v>
   <v>       0.46875000       0.40625000       0.34375000 </v>
   <v>       0.46875000       0.46875000       0.34375000 </v>
   <v>       0.40625000       0.40625000       0.40625000 </v>
   <v>       0.46875000       0.40625000       0.40625000 </v>
   <v>       0.46875000       0.46875000       0.40625000 </v>
   <v>       0.46875000       0.46875000       0.46875000 </v>
  </varray>
  <varray name="weights" >
   <v>       0.00195312 </v>
   <v>       0.00585938 </v>
   <v>       0.00585938 </v>
   <v>       0.00585938 </v>
   <v>       0.00585938 </v>
   <v>       0.00585938 </v>
   <v>       0.00585938 </v>
   <v>       0.00585938 </v>
   <v>       0.00585938 </v>
   <v>       0.01171875 </v>
   <v>       0.01171875 </v>
   <v>       0.01171875 </v>
   <v>       0.01171875 </v>
   <v>       0.01171875 </v>
   <v>       0.01171875 </v>
   <v>       0.00585938 </v>
   <v>       0.01171875 </v>
   <v>       0.01171875 </v>
   <v>       0.01171875 </v>
   <v>       0.01171875 </v>
   <v>       0.01171875 </v>
   <v>       0.00585938 </v>
   <v>       0.01171875 </v>
   <v>       0.01171875 </v>
   <v>       0.01171875 </v>
   <v>       0.01171875 </v>
   <v>       0.00585938 </v>
   <v>       0.01171875 </v>
   <v>       0.01171875 </v>
   <v>       0.01171875 </v>
   <v>       0.00585938 </v>
   <v>       0.01171875 </v>
   <v>       0.01171875 </v>
   <v>       0.00585938 </v>
   <v>       0.01171875 </v>
   <v>       0.00585938 </v>
   <v>       0.00195312 </v>
   <v>       0.00585938 </v>
   <v>       0.00585938 </v>
   <v>       0.00585938 </v>
   <v>       0.00585938 </v>
   <v>       0.00585938 </v>
   <v>       0.00585938 </v>
   <v>       0.00585938 </v>
   <v>       0.01171875 </v>
   <v>       0.01171875 </v>
   <v>       0.01171875 </v>
   <v>       0.01171875 </v>
   <v>       0.01171875 </v>
   <v>       0.00585938 </v>
   <v>       0.01171875 </v>
   <v>       0.01171875 </v>
   <v>       0.01171875 </v>
   <v>       0.01171875 </v>
   <v>       0.00585938 </v>
   <v>       0.01171875 </v>
   <v>       0.01171875 </v>
   <v>       0.01171875 </v>
   <v>       0.00585938 </v>
   <v>       0.01171875 </v>
   <v>       0.01171875 </v>
   <v>       0.00585938 </v>
   <v>       0.01171875 </v>
   <v>       0.00585938 </v>
   <v>       0.00195312 </v>
   <v>       0.00585938 </v>
   <v>       0.00585938 </v>
   <v>       0.00585938 </v>
   <v>       0.00585938 </v>
   <v>       0.00585938 </v>
   <v>       0.00585938 </v>
   <v>       0.01171875 </v>
   <v>       0.01171875 </v>
   <v>       0.01171875 </v>
   <v>       0.01171875 </v>
   <v>       0.00585938 </v>
   <v>       0.01171875 </v>
   <v>       0.01171875 </v>
   <v>       0.01171875 </v>
   <v>       0.00585938 </v>
   <v>       0.01171875 </v>
   <v>       0.01171875 </v>
   <v>       0.00585938 </v>
   <v>       0.01171875 </v>
   <v>       0.00585938 </v>
   <v>       0.00195312 </v>
   <v>       0.00585938 </v>
   <v>       0.00585938 </v>
   <v>       0.00585938 </v>
   <v>       0.00585938 </v>
   <v>       0.00585938 </v>
   <v>       0.01171875 </v>
   <v>       0.01171875 </v>
   <v>       0.01171875 </v>
   <v>       0.00585938 </v>
   <v>       0.01171875 </v>
   <v>       0.01171875 </v>
   <v>       0.00585938 </v>
   <v>       0.01171875 </v>
   <v>       0.00585938 </v>
   <v>       0.00195312 </v>
   <v>       0.00585938 </v>
   <v>       0.00585938 </v>
   <v>       0.00585938 </v>
   <v>       0.00585938 </v>
   <v>       0.01171875 </v>
   <v>       0.01171875 </v>
   <v>       0.00585938 </v>
   <v>       0.01171875 </v>
   <v>       0.00585938 </v>
   <v>       0.00195312 </v>
   <v>       0.00585938 </v>
   <v>       0.00585938 </v>
   <v>       0.00585938 </v>
   <v>       0.01171875 </v>
   <v>       0.00585938 </v>
   <v>       0.00195312 </v>
   <v>       0.00585938 </v>
   <v>       0.00585938 </v>
   <v>       0.00195312 </v>
  </varray>
 </kpoints>
 <parameters>
  <separator name="general" >
   <i type="string" name="SYSTEM">Pt bulk calculation</i>
   <i type="logical" name="LCOMPAT"> F  </i>
  </separator>
  <separator name="electronic" >
   <i type="string" name="PREC">normal</i>
   <i name="ENMAX">    450.00000000</i>
   <i name="ENAUG">    358.96600000</i>
   <i name="EDIFF">      0.00000100</i>
   <i type="int" name="IALGO">    38</i>
   <i type="int" name="IWAVPR">    11</i>
   <i type="int" name="NBANDS">    24</i>
   <i name="NELECT">     40.00000000</i>
   <i type="int" name="TURBO">     0</i>
   <i type="int" name="IRESTART">     0</i>
   <i type="int" name="NREBOOT">     0</i>
   <i type="int" name="NMIN">     0</i>
   <i name="EREF">      0.00000000</i>
   <separator name="electronic smearing" >
    <i type="int" name="ISMEAR">     2</i>
    <i name="SIGMA">      0.20000000</i>
    <i name="KSPACING">      0.50000000</i>
    <i type="logical" name="KGAMMA"> T  </i>
   </separator>
   <separator name="electronic projectors" >
    <i type="logical" name="LREAL"> F  </i>
    <v name="ROPT">      0.00000000</v>
    <i type="int" name="LMAXPAW">  -100</i>
    <i type="int" name="LMAXMIX">     2</i>
    <i type="logical" name="NLSPLINE"> F  </i>
   </separator>
   <separator name="electronic startup" >
    <i type="int" name="ISTART">     0</i>
    <i type="int" name="ICHARG">     2</i>
    <i type="int" name="INIWAV">     1</i>
   </separator>
   <separator name="electronic spin" >
    <i type="int" name="ISPIN">     1</i>
    <i type="logical" name="LNONCOLLINEAR"> F  </i>
    <v name="MAGMOM">      1.00000000      1.00000000      1.00000000      1.00000000</v>
    <i name="NUPDOWN">     -1.00000000</i>
    <i type="logical" name="LSORBIT"> F  </i>
    <v name="SAXIS">      0.00000000      0.00000000      1.00000000</v>
    <i type="logical" name="LSPIRAL"> F  </i>
    <v name="QSPIRAL">      0.00000000      0.00000000      0.00000000</v>
    <i type="logical" name="LZEROZ"> F  </i>
   </separator>
   <separator name="electronic exchange-correlation" >
    <i type="logical" name="LASPH"> F  </i>
    <i type="logical" name="LMETAGGA"> F  </i>
   </separator>
   <separator name="electronic convergence" >
    <i type="int" name="NELM">    60</i>
    <i type="int" name="NELMDL">    -5</i>
    <i type="int" name="NELMIN">    10</i>
    <i name="ENINI">    450.00000000</i>
    <separator name="electronic convergence detail" >
     <i type="logical" name="LDIAG"> T  </i>
     <i type="logical" name="LSUBROT"> F  </i>
     <i name="WEIMIN">      0.00100000</i>
     <i name="EBREAK">      0.00000001</i>
     <i name="DEPER">      0.30000000</i>
     <i type="int" name="NRMM">     4</i>
     <i name="TIME">      0.40000000</i>
    </separator>
   </separator>
   <separator name="electronic mixer" >
    <i name="AMIX">      0.40000000</i>
    <i name="BMIX">      1.00000000</i>
    <i name="AMIN">      0.10000000</i>
    <i name="AMIX_MAG">      1.60000000</i>
    <i name="BMIX_MAG">      1.00000000</i>
    <separator name="electronic mixer details" >
     <i type="int" name="IMIX">     4</i>
     <i type="logical" name="MIXFIRST"> F  </i>
     <i type="int" name="MAXMIX">   -45</i>
     <i name="WC">    100.00000000</i>
     <i type="int" name="INIMIX">     1</i>
     <i type="int" name="MIXPRE">     1</i>
     <i type="int" name="MREMOVE">     5</i>
    </separator>
   </separator>
   <separator name="electronic dipolcorrection" >
    <i type="logical" name="LDIPOL"> F  </i>
    <i type="logical" name="LMONO"> F  </i>
    <i type="int" name="IDIPOL">     0</i>
    <i name="EPSILON">      1.00000000</i>
    <v name="DIPOL">   -100.00000000   -100.00000000   -100.00000000</v>
    <i name="EFIELD">      0.00000000</i>
   </separator>
  </separator>
  <separator name="grids" >
   <i type="int" name="NGX">    24</i>
   <i type="int" name="NGY">    24</i>
   <i type="int" name="NGZ">    24</i>
   <i type="int" name="NGXF">    48</i>
   <i type="int" name="NGYF">    48</i>
   <i type="int" name="NGZF">    48</i>
   <i type="logical" name="ADDGRID"> F  </i>
  </separator>
  <separator name="ionic" >
   <i type="int" name="NSW">    10</i>
   <i type="int" name="IBRION">     2</i>
   <i type="int" name="MDALGO">     0</i>
   <i type="int" name="ISIF">     2</i>
   <i name="PSTRESS">      0.00000000</i>
   <i name="EDIFFG">     -0.02000000</i>
   <i type="int" name="NFREE">     1</i>
   <i name="POTIM">      0.20000000</i>
   <i name="SMASS">     -3.00000000</i>
   <i name="SCALEE">      1.00000000</i>
  </separator>
  <separator name="ionic md" >
   <i name="TEBEG">      0.00010000</i>
   <i name="TEEND">      0.00010000</i>
   <i type="int" name="NBLOCK">     1</i>
   <i type="int" name="KBLOCK">    10</i>
   <i type="int" name="NPACO">   256</i>
   <i name="APACO">     16.00000000</i>
  </separator>
  <separator name="symmetry" >
   <i type="int" name="ISYM">     2</i>
   <i name="SYMPREC">      0.00001000</i>
  </separator>
  <separator name="dos" >
   <i type="int" name="LORBIT">     0</i>
   <v name="RWIGS">     -1.00000000</v>
   <i type="int" name="NEDOS">   301</i>
   <i name="EMIN">     10.00000000</i>
   <i name="EMAX">    -10.00000000</i>
   <i name="EFERMI">      0.00000000</i>
  </separator>
  <separator name="writing" >
   <i type="int" name="NWRITE">     2</i>
   <i type="logical" name="LWAVE"> T  </i>
   <i type="logical" name="LDOWNSAMPLE"> F  </i>
   <i type="logical" name="LCHARG"> T  </i>
   <i type="logical" name="LPARD"> F  </i>
   <i type="logical" name="LVTOT"> F  </i>
   <i type="logical" name="LVHAR"> F  </i>
   <i type="logical" name="LELF"> F  </i>
   <i type="logical" name="LOPTICS"> F  </i>
   <v name="STM">      0.00000000      0.00000000      0.00000000      0.00000000      0.00000000      0.00000000      0.00000000</v>
  </separator>
  <separator name="performance" >
   <i type="int" name="NPAR">     2</i>
   <i type="int" name="NSIM">     4</i>
   <i type="int" name="NBLK">    -1</i>
   <i type="logical" name="LPLANE"> T  </i>
   <i type="logical" name="LSCALAPACK"> F  </i>
   <i type="logical" name="LSCAAWARE"> F  </i>
   <i type="logical" name="LSCALU"> F  </i>
   <i type="logical" name="LASYNC"> F  </i>
   <i type="logical" name="LORBITALREAL"> F  </i>
  </separator>
  <separator name="miscellaneous" >
   <i type="int" name="IDIOT">     3</i>
   <i type="int" name="ISPECIAL">     0</i>
   <i type="logical" name="LMUSIC"> F  </i>
   <v name="POMASS">    195.08000000</v>
   <v name="DARWINR">      0.00000000</v>
   <v name="DARWINV">      1.00000000</v>
   <i type="logical" name="LCORR"> T  </i>
  </separator>
  <i type="logical" name="GGA_COMPAT"> T  </i>
  <i type="logical" name="LBERRY"> F  </i>
  <i type="int" name="ICORELEVEL">     0</i>
  <i type="logical" name="LDAU"> F  </i>
  <i type="int" name="I_CONSTRAINED_M">     0</i>
  <separator name="electronic exchange-correlation" >
   <i type="string" name="GGA">91</i>
   <i type="int" name="VOSKOWN">     0</i>
   <i type="logical" name="LHFCALC"> F  </i>
   <i type="string" name="PRECFOCK"></i>
   <i type="logical" name="LSYMGRAD"> F  </i>
   <i type="logical" name="LHFONE"> F  </i>
   <i type="logical" name="LRHFCALC"> F  </i>
   <i type="logical" name="LTHOMAS"> F  </i>
   <i type="logical" name="LMODELHF"> F  </i>
   <i name="ENCUT4O">     -1.00000000</i>
   <i type="int" name="EXXOEP">     0</i>
   <i type="int" name="FOURORBIT">     0</i>
   <i name="AEXX">      0.00000000</i>
   <i name="HFALPHA">      0.00000000</i>
   <i name="MCALPHA">      0.00000000</i>
   <i name="ALDAX">      1.00000000</i>
   <i name="AGGAX">      1.00000000</i>
   <i name="ALDAC">      1.00000000</i>
   <i name="AGGAC">      1.00000000</i>
   <i type="int" name="NKREDX">     1</i>
   <i type="int" name="NKREDY">     1</i>
   <i type="int" name="NKREDZ">     1</i>
   <i type="logical" name="SHIFTRED"> F  </i>
   <i type="logical" name="ODDONLY"> F  </i>
   <i type="logical" name="EVENONLY"> F  </i>
   <i type="int" name="LMAXFOCK">     0</i>
   <i type="int" name="NMAXFOCKAE">     0</i>
   <i type="logical" name="LFOCKAEDFT"> F  </i>
   <i name="HFSCREEN">      0.00000000</i>
   <i name="HFSCREENC">      0.00000000</i>
   <i type="int" name="NBANDSGWLOW">     0</i>
  </separator>
  <separator name="vdW DFT" >
   <i type="logical" name="LUSE_VDW"> F  </i>
   <i name="Zab_VDW">     -0.84910000</i>
   <i name="PARAM1">      0.12340000</i>
   <i name="PARAM2">      1.00000000</i>
   <i name="PARAM3">      0.00000000</i>
  </separator>
  <separator name="model GW" >
   <i type="int" name="MODEL_GW">     0</i>
   <i name="MODEL_EPS0">     11.27271720</i>
   <i name="MODEL_ALPHA">      1.00000000</i>
  </separator>
  <separator name="linear response parameters" >
   <i type="logical" name="LEPSILON"> F  </i>
   <i type="logical" name="LRPA"> F  </i>
   <i type="logical" name="LNABLA"> F  </i>
   <i type="logical" name="LVEL"> F  </i>
   <i type="int" name="KINTER">     0</i>
   <i name="CSHIFT">      0.10000000</i>
   <i name="OMEGAMAX">     -1.00000000</i>
   <i name="DEG_THRESHOLD">      0.00200000</i>
   <i name="RTIME">     -0.10000000</i>
   <i name="WPLASMAI">      0.00000000</i>
   <v name="DFIELD">      0.00000000      0.00000000      0.00000000</v>
   <v name="WPLASMA">      0.00000000      0.00000000      0.00000000      0.00000000      0.00000000      0.00000000      0.00000000      0.00000000      0.00000000</v>
  </separator>
  <separator name="orbital magnetization" >
   <i type="logical" name="NUCIND"> F  </i>
   <v name="MAGPOS">      0.00000000      0.00000000      0.00000000</v>
   <i type="logical" name="LNICSALL"> T  </i>
   <i type="logical" name="ORBITALMAG"> F  </i>
   <i type="logical" name="LMAGBLOCH"> F  </i>
   <i type="logical" name="LCHIMAG"> F  </i>
   <i type="logical" name="LGAUGE"> T  </i>
   <i type="int" name="MAGATOM">     0</i>
   <v name="MAGDIPOL">      0.00000000      0.00000000      0.00000000</v>
   <v name="AVECCONST">      0.00000000      0.00000000      0.00000000</v>
  </separator>
  <separator name="response functions" >
   <i type="logical" name="LADDER"> F  </i>
   <i type="logical" name="LRPAFORCE"> F  </i>
   <i type="logical" name="LFXC"> F  </i>
   <i type="logical" name="LHARTREE"> T  </i>
   <i type="int" name="IBSE">     0</i>
   <v type="int" name="KPOINT">    -1     0     0     0</v>
   <i type="logical" name="LTCTE"> F  </i>
   <i type="logical" name="LTETE"> F  </i>
   <i type="logical" name="LTRIPLET"> F  </i>
   <i type="logical" name="LFXCEPS"> F  </i>
   <i type="logical" name="LFXHEG"> F  </i>
   <i type="int" name="NATURALO">     2</i>
   <i type="logical" name="L2ORDER"> F  </i>
   <i type="logical" name="LMP2LT"> F  </i>
   <i type="logical" name="LUSEW"> F  </i>
   <i name="ENCUTGW">     -2.00000000</i>
   <i name="ENCUTGWSOFT">     -2.00000000</i>
   <i name="ENCUTLF">     -1.00000000</i>
   <i type="int" name="LMAXMP2">    -1</i>
   <i name="SCISSOR">      0.00000000</i>
   <i type="int" name="NOMEGA">     0</i>
   <i type="int" name="NOMEGAR">     0</i>
   <i type="int" name="NBANDSGW">    -1</i>
   <i type="int" name="NBANDSO">    -1</i>
   <i type="int" name="NBANDSV">    -1</i>
   <i type="int" name="NELM">     1</i>
   <i type="int" name="NELMHF">     1</i>
   <i type="int" name="DIM">     3</i>
   <i type="int" name="ANTIRES">     0</i>
   <i name="OMEGAMAX">    -30.00000000</i>
   <i name="OMEGAMIN">    -30.00000000</i>
   <i name="OMEGATL">   -200.00000000</i>
   <i type="int" name="OMEGAGRID">   140</i>
   <i name="CSHIFT">     -0.10000000</i>
   <i type="logical" name="SELFENERGY"> F  </i>
   <i type="logical" name="LSPECTRAL"> F  </i>
   <i type="logical" name="LSPECTRALGW"> F  </i>
   <i type="logical" name="LSINGLES"> F  </i>
   <i type="logical" name="LFERMIGW"> F  </i>
   <i type="logical" name="ODDONLYGW"> F  </i>
   <i type="logical" name="EVENONLYGW"> F  </i>
   <i type="int" name="NKREDLFX">     1</i>
   <i type="int" name="NKREDLFY">     1</i>
   <i type="int" name="NKREDLFZ">     1</i>
   <i type="int" name="MAXMEM">  2800</i>
   <i type="int" name="TELESCOPE">     0</i>
   <i type="int" name="TAUPAR">     1</i>
   <i type="int" name="OMEGAPAR">    -1</i>
   <i name="LAMBDA">      1.00000000</i>
  </separator>
  <separator name="External order field" >
   <i name="OFIELD_KAPPA">      0.00000000</i>
   <v name="OFIELD_K">      0.00000000      0.00000000      0.00000000</v>
   <i name="OFIELD_Q6_NEAR">      0.00000000</i>
   <i name="OFIELD_Q6_FAR">      0.00000000</i>
   <i name="OFIELD_A">      0.00000000</i>
  </separator>
 </parameters>
 <atominfo>
  <atoms>       4 </atoms>
  <types>       1 </types>
  <array name="atoms" >
   <dimension dim="1">ion</dimension>
   <field type="string">element</field>
   <field type="int">atomtype</field>
   <set>
    <rc><c>Pt</c><c>   1</c></rc>
    <rc><c>Pt</c><c>   1</c></rc>
    <rc><c>Pt</c><c>   1</c></rc>
    <rc><c>Pt</c><c>   1</c></rc>
   </set>
  </array>
  <array name="atomtypes" >
   <dimension dim="1">type</dimension>
   <field type="int">atomspertype</field>
   <field type="string">element</field>
   <field>mass</field>
   <field>valence</field>
   <field type="string">pseudopotential</field>
   <set>
    <rc><c>   4</c><c>Pt</c><c>    195.08000000</c><c>     10.00000000</c><c> PAW_PBE Pt 05Jan2001                   </c></rc>
   </set>
  </array>
 </atominfo>
 <structure name="initialpos" >
  <crystal>
   <varray name="basis" >
    <v>       4.22000000       0.00000000       0.00000000 </v>
    <v>       0.00000000       4.22000000       0.00000000 </v>
    <v>       0.00000000       0.00000000       4.22000000 </v>
   </varray>
   <i name="volume">     75.15144800 </i>
   <varray name="rec_basis" >
    <v>       0.23696682       0.00000000       0.00000000 </v>
    <v>       0.00000000       0.23696682       0.00000000 </v>
    <v>       0.00000000       0.00000000       0.23696682 </v>
   </varray>
  </crystal>
  <varray name="positions" >
   <v>       0.00000000       0.00000000       0.00000000 </v>
   <v>       0.00000000       0.50000000       0.50000000 </v>
   <v>       0.50000000       0.00000000       0.50000000 </v>
   <v>       0.50000000       0.50000000       0.00000000 </v>
  </varray>
 </structure>
 <calculation>
  <scstep>
   <time name="dav">    1.27    1.27</time>
   <time name="total">    1.29    1.37</time>
   <energy>
    <i name="alphaZ">    309.76442131 </i>
    <i name="ewald">  -3128.95918280 </i>
    <i name="hartreedc">   -368.11064614 </i>
    <i name="XCdc">     11.09184138 </i>
    <i name="pawpsdc">   2293.79710215 </i>
    <i name="pawaedc">  -2181.03440391 </i>
    <i name="eentropy">      0.00196623 </i>
    <i name="bandstr">    554.82420600 </i>
    <i name="atom">   2915.53815049 </i>
    <i name="e_fr_energy">    406.91345471 </i>
    <i name="e_wo_entrp">    406.91148848 </i>
    <i name="e_0_energy">    406.91296315 </i>
   </energy>
  </scstep>
  <scstep>
   <time name="dav">    1.20    1.20</time>
   <time name="total">    1.21    1.21</time>
   <energy>
    <i name="e_fr_energy">      6.28184346 </i>
    <i name="e_wo_entrp">      6.28093510 </i>
    <i name="e_0_energy">      6.28161637 </i>
   </energy>
  </scstep>
  <scstep>
   <time name="dav">    1.59    1.59</time>
   <time name="total">    1.60    1.60</time>
   <energy>
    <i name="e_fr_energy">    -23.91935349 </i>
    <i name="e_wo_entrp">    -23.91239994 </i>
    <i name="e_0_energy">    -23.91761510 </i>
   </energy>
  </scstep>
  <scstep>
   <time name="dav">    1.32    1.32</time>
   <time name="total">    1.33    1.33</time>
   <energy>
    <i name="e_fr_energy">    -24.97054195 </i>
    <i name="e_wo_entrp">    -24.96387057 </i>
    <i name="e_0_energy">    -24.96887411 </i>
   </energy>
  </scstep>
  <scstep>
   <time name="dav">    1.56    1.56</time>
   <time name="total">    1.64    1.64</time>
   <energy>
    <i name="e_fr_energy">    -25.00948339 </i>
    <i name="e_wo_entrp">    -25.00269247 </i>
    <i name="e_0_energy">    -25.00778566 </i>
   </energy>
  </scstep>
  <scstep>
   <time name="dav">    1.52    1.52</time>
   <time name="total">    1.61    1.62</time>
   <energy>
    <i name="e_fr_energy">    -23.35127641 </i>
    <i name="e_wo_entrp">    -23.34240062 </i>
    <i name="e_0_energy">    -23.34905746 </i>
   </energy>
  </scstep>
  <scstep>
   <time name="dav">    1.72    1.72</time>
   <time name="total">    1.81    1.82</time>
   <energy>
    <i name="e_fr_energy">    -23.29620404 </i>
    <i name="e_wo_entrp">    -23.28639308 </i>
    <i name="e_0_energy">    -23.29375130 </i>
   </energy>
  </scstep>
  <scstep>
   <time name="dav">    1.25    1.25</time>
   <time name="total">    1.34    1.34</time>
   <energy>
    <i name="e_fr_energy">    -23.28893279 </i>
    <i name="e_wo_entrp">    -23.27914202 </i>
    <i name="e_0_energy">    -23.28648510 </i>
   </energy>
  </scstep>
  <scstep>
   <time name="dav">    1.65    1.65</time>
   <time name="total">    1.74    1.74</time>
   <energy>
    <i name="e_fr_energy">    -23.28871004 </i>
    <i name="e_wo_entrp">    -23.27882480 </i>
    <i name="e_0_energy">    -23.28623873 </i>
   </energy>
  </scstep>
  <scstep>
   <time name="dav">    1.37    1.37</time>
   <time name="total">    1.46    1.47</time>
   <energy>
    <i name="e_fr_energy">    -23.28872011 </i>
    <i name="e_wo_entrp">    -23.27885109 </i>
    <i name="e_0_energy">    -23.28625286 </i>
   </energy>
  </scstep>
  <scstep>
   <time name="dav">    1.03    1.03</time>
   <time name="total">    1.13    1.13</time>
   <energy>
    <i name="e_fr_energy">    -23.28872126 </i>
    <i name="e_wo_entrp">    -23.27885447 </i>
    <i name="e_0_energy">    -23.28625456 </i>
   </energy>
  </scstep>
  <scstep>
   <time name="dav">    0.79    0.79</time>
   <time name="total">    0.80    0.80</time>
   <energy>
    <i name="alphaZ">    309.76442131 </i>
    <i name="ewald">  -3128.95918280 </i>
    <i name="hartreedc">   -326.59252534 </i>
    <i name="XCdc">      9.36402989 </i>
    <i name="pawpsdc">   2278.47944488 </i>
    <i name="pawaedc">  -2172.26369509 </i>
    <i name="eentropy">     -0.00986693 </i>
    <i name="bandstr">     91.39050267 </i>
    <i name="atom">   2915.53815049 </i>
    <i name="e_fr_energy">    -23.28872092 </i>
    <i name="e_wo_entrp">    -23.27885399 </i>
    <i name="e_0_energy">    -23.28625419 </i>
   </energy>
  </scstep>
  <structure>
   <crystal>
    <varray name="basis" >
     <v>       4.22000000       0.00000000       0.00000000 </v>
     <v>       0.00000000       4.22000000       0.00000000 </v>
     <v>       0.00000000       0.00000000       4.22000000 </v>
    </varray>
    <i name="volume">     75.15144800 </i>
    <varray name="rec_basis" >
     <v>       0.23696682       0.00000000       0.00000000 </v>
     <v>       0.00000000       0.23696682       0.00000000 </v>
     <v>       0.00000000       0.00000000       0.23696682 </v>
    </varray>
   </crystal>
   <varray name="positions" >
    <v>       0.00000000       0.00000000       0.00000000 </v>
    <v>       0.00000000       0.50000000       0.50000000 </v>
    <v>       0.50000000       0.00000000       0.50000000 </v>
    <v>       0.50000000       0.50000000       0.00000000 </v>
   </varray>
  </structure>
  <varray name="forces" >
   <v>      -0.00000000      -0.00000000       0.00000000 </v>
   <v>       0.00000000      -0.00000000      -0.00000000 </v>
   <v>      -0.00000000       0.00000000       0.00000000 </v>
   <v>      -0.00000000       0.00000000       0.00000000 </v>
  </varray>
  <varray name="stress" >
   <v>    -257.16002220      -0.00000000       0.00000000 </v>
   <v>      -0.00000000    -257.16002220      -0.00000000 </v>
   <v>      -0.00000000       0.00000000    -257.16002220 </v>
  </varray>
  <energy>
   <i name="e_fr_energy">    -23.28872092 </i>
   <i name="e_wo_entrp">    -23.28625419 </i>
   <i name="e_0_energy">     -0.00986693 </i>
  </energy>
  <time name="totalsc">   18.32   19.92</time>
  <eigenvalues>
   <array>
    <dimension dim="1">band</dimension>
    <dimension dim="2">kpoint</dimension>
    <dimension dim="3">spin</dimension>
    <field>eigene</field>
    <field>occ</field>
    <set>
     <set comment="spin 1">
      <set comment="kpoint 1">
       <r>   -3.0888    1.0000 </r>
       <r>   -0.1378    1.0000 </r>
       <r>   -0.1378    1.0000 </r>
       <r>   -0.1378    1.0000 </r>
       <r>    0.1886    1.0000 </r>
       <r>    0.1886    1.0000 </r>
       <r>    0.1886    1.0000 </r>
       <r>    2.1664    1.0000 </r>
       <r>    2.1897    1.0000 </r>
       <r>    2.1897    1.0000 </r>
       <r>    3.6781    1.0000 </r>
       <r>    3.6781    1.0000 </r>
       <r>    4.7899    0.6633 </r>
       <r>    4.7899    0.6633 </r>
       <r>    4.7899    0.6633 </r>
       <r>    5.0256   -0.0504 </r>
       <r>    5.0256   -0.0504 </r>
       <r>    5.0256   -0.0504 </r>
       <r>    5.1221   -0.0107 </r>
       <r>    5.1221   -0.0107 </r>
       <r>    5.1221   -0.0107 </r>
       <r>    7.1317    0.0000 </r>
       <r>    7.1317    0.0000 </r>
       <r>    7.1317    0.0000 </r>
      </set>
      <set comment="kpoint 2">
       <r>   -3.0034    1.0000 </r>
       <r>   -0.1130    1.0000 </r>
       <r>   -0.0794    1.0000 </r>
       <r>   -0.0794    1.0000 </r>
       <r>    0.2207    1.0000 </r>
       <r>    0.2366    1.0000 </r>
       <r>    0.2366    1.0000 </r>
       <r>    2.1238    1.0000 </r>
       <r>    2.2254    1.0000 </r>
       <r>    2.2283    1.0000 </r>
       <r>    3.6286    1.0000 </r>
       <r>    3.6986    1.0000 </r>
       <r>    4.6664    1.0373 </r>
       <r>    4.6664    1.0373 </r>
       <r>    4.7357    0.8945 </r>
       <r>    4.7357    0.8945 </r>
       <r>    4.7577    0.8119 </r>
       <r>    4.9203    0.0644 </r>
       <r>    5.0436   -0.0453 </r>
       <r>    5.1174   -0.0124 </r>
       <r>    5.1174   -0.0124 </r>
       <r>    6.5911    0.0000 </r>
       <r>    7.5314    0.0000 </r>
       <r>    7.5314    0.0000 </r>
      </set>
      <set comment="kpoint 3">
       <r>   -2.8344    1.0000 </r>
       <r>   -0.0703    1.0000 </r>
       <r>    0.0341    1.0000 </r>
       <r>    0.0341    1.0000 </r>
       <r>    0.2841    1.0000 </r>
       <r>    0.3324    1.0000 </r>
       <r>    0.3324    1.0000 </r>
       <r>    2.0350    1.0000 </r>
       <r>    2.3028    1.0000 </r>
       <r>    2.3051    1.0000 </r>
       <r>    3.5334    1.0000 </r>
       <r>    3.7391    1.0000 </r>
       <r>    4.1934    0.9998 </r>
       <r>    4.1934    0.9998 </r>
       <r>    4.5839    1.0389 </r>
       <r>    4.5839    1.0389 </r>
       <r>    4.6845    1.0166 </r>
       <r>    4.7070    0.9752 </r>
       <r>    4.9066    0.1071 </r>
       <r>    5.1167   -0.0127 </r>
       <r>    5.1167   -0.0127 </r>
       <r>    5.8322    0.0000 </r>
       <r>    8.1211    0.0000 </r>
       <r>    8.1211    0.0000 </r>
      </set>
      <set comment="kpoint 4">
       <r>   -2.5850    1.0000 </r>
       <r>   -0.0258    1.0000 </r>
       <r>    0.1954    1.0000 </r>
       <r>    0.1954    1.0000 </r>
       <r>    0.3775    1.0000 </r>
       <r>    0.4756    1.0000 </r>
       <r>    0.4756    1.0000 </r>
       <r>    1.9084    1.0000 </r>
       <r>    2.4178    1.0000 </r>
       <r>    2.4193    1.0000 </r>
       <r>    3.4003    1.0000 </r>
       <r>    3.6798    1.0000 </r>
       <r>    3.6798    1.0000 </r>
       <r>    3.7982    1.0000 </r>
       <r>    4.3577    0.9966 </r>
       <r>    4.3833    0.9957 </r>
       <r>    4.3833    0.9957 </r>
       <r>    4.5413    1.0189 </r>
       <r>    4.7596    0.8039 </r>
       <r>    5.1113   -0.0148 </r>
       <r>    5.1165   -0.0128 </r>
       <r>    5.1165   -0.0128 </r>
       <r>    8.7841    0.0000 </r>
       <r>    8.7841    0.0000 </r>
      </set>
      <set comment="kpoint 5">
       <r>   -2.2615    1.0000 </r>
       <r>   -0.0089    1.0000 </r>
       <r>    0.3923    1.0000 </r>
       <r>    0.3923    1.0000 </r>
       <r>    0.4986    1.0000 </r>
       <r>    0.6649    1.0000 </r>
       <r>    0.6649    1.0000 </r>
       <r>    1.7516    1.0000 </r>
       <r>    2.5669    1.0000 </r>
       <r>    2.5698    1.0000 </r>
       <r>    3.1757    1.0000 </r>
       <r>    3.1757    1.0000 </r>
       <r>    3.2434    1.0000 </r>
       <r>    3.8440    1.0000 </r>
       <r>    3.8743    1.0000 </r>
       <r>    4.1404    1.0000 </r>
       <r>    4.1404    1.0000 </r>
       <r>    4.3149    0.9981 </r>
       <r>    4.5845    1.0392 </r>
       <r>    4.6380    1.0510 </r>
       <r>    5.1166   -0.0127 </r>
       <r>    5.1166   -0.0127 </r>
       <r>    9.4635    0.0000 </r>
       <r>    9.4635    0.0000 </r>
      </set>
      <set comment="kpoint 6">
       <r>   -1.8740    1.0000 </r>
       <r>   -0.0659    1.0000 </r>
       <r>    0.6044    1.0000 </r>
       <r>    0.6044    1.0000 </r>
       <r>    0.6444    1.0000 </r>
       <r>    0.8976    1.0000 </r>
       <r>    0.8976    1.0000 </r>
       <r>    1.5732    1.0000 </r>
       <r>    2.6978    1.0000 </r>
       <r>    2.6978    1.0000 </r>
       <r>    2.7360    1.0000 </r>
       <r>    2.7545    1.0000 </r>
       <r>    3.0919    1.0000 </r>
       <r>    3.3128    1.0000 </r>
       <r>    3.8837    1.0000 </r>
       <r>    3.8837    1.0000 </r>
       <r>    3.9650    1.0000 </r>
       <r>    4.0448    1.0000 </r>
       <r>    4.2005    0.9998 </r>
       <r>    4.5250    1.0123 </r>
       <r>    5.1168   -0.0126 </r>
       <r>    5.1168   -0.0126 </r>
       <r>   10.0776    0.0000 </r>
       <r>   10.0776    0.0000 </r>
      </set>
      <set comment="kpoint 7">
       <r>   -1.4399    1.0000 </r>
       <r>   -0.2480    1.0000 </r>
       <r>    0.7970    1.0000 </r>
       <r>    0.7970    1.0000 </r>
       <r>    0.8109    1.0000 </r>
       <r>    1.1716    1.0000 </r>
       <r>    1.1716    1.0000 </r>
       <r>    1.3818    1.0000 </r>
       <r>    2.2544    1.0000 </r>
       <r>    2.2544    1.0000 </r>
       <r>    2.8168    1.0000 </r>
       <r>    2.9342    1.0000 </r>
       <r>    2.9707    1.0000 </r>
       <r>    3.0770    1.0000 </r>
       <r>    3.6577    1.0000 </r>
       <r>    3.6577    1.0000 </r>
       <r>    3.7610    1.0000 </r>
       <r>    3.8675    1.0000 </r>
       <r>    4.0673    1.0000 </r>
       <r>    4.4102    0.9951 </r>
       <r>    5.1170   -0.0126 </r>
       <r>    5.1170   -0.0126 </r>
       <r>   10.3963    0.0000 </r>
       <r>   10.3963    0.0000 </r>
      </set>
      <set comment="kpoint 8">
       <r>   -0.9891    1.0000 </r>
       <r>   -0.5703    1.0000 </r>
       <r>    0.9172    1.0000 </r>
       <r>    0.9172    1.0000 </r>
       <r>    0.9934    1.0000 </r>
       <r>    1.1860    1.0000 </r>
       <r>    1.4878    1.0000 </r>
       <r>    1.4878    1.0000 </r>
       <r>    1.8511    1.0000 </r>
       <r>    1.8511    1.0000 </r>
       <r>    2.7537    1.0000 </r>
       <r>    2.7611    1.0000 </r>
       <r>    3.2146    1.0000 </r>
       <r>    3.2882    1.0000 </r>
       <r>    3.4806    1.0000 </r>
       <r>    3.5201    1.0000 </r>
       <r>    3.5201    1.0000 </r>
       <r>    3.5625    1.0000 </r>
       <r>    4.1781    0.9999 </r>
       <r>    4.2936    0.9987 </r>
       <r>    5.1171   -0.0125 </r>
       <r>    5.1171   -0.0125 </r>
       <r>   10.4412    0.0000 </r>
       <r>   10.4412    0.0000 </r>
      </set>
      <set comment="kpoint 9">
       <r>   -2.9191    1.0000 </r>
       <r>   -0.0539    1.0000 </r>
       <r>   -0.0539    1.0000 </r>
       <r>   -0.0287    1.0000 </r>
       <r>    0.2680    1.0000 </r>
       <r>    0.2680    1.0000 </r>
       <r>    0.2894    1.0000 </r>
       <r>    2.1009    1.0000 </r>
       <r>    2.2437    1.0000 </r>
       <r>    2.2620    1.0000 </r>
       <r>    3.6157    1.0000 </r>
       <r>    3.6876    1.0000 </r>
       <r>    4.4594    0.9969 </r>
       <r>    4.5134    1.0082 </r>
       <r>    4.5134    1.0082 </r>
       <r>    4.6453    1.0493 </r>
       <r>    4.7265    0.9240 </r>
       <r>    4.7265    0.9240 </r>
       <r>    5.0425   -0.0457 </r>
       <r>    5.0425   -0.0457 </r>
       <r>    5.0717   -0.0329 </r>
       <r>    6.9990    0.0000 </r>
       <r>    6.9990    0.0000 </r>
       <r>    7.8617    0.0000 </r>
      </set>
      <set comment="kpoint 10">
       <r>   -2.7520    1.0000 </r>
       <r>   -0.0100    1.0000 </r>
       <r>    0.0609    1.0000 </r>
       <r>    0.0701    1.0000 </r>
       <r>    0.3302    1.0000 </r>
       <r>    0.3626    1.0000 </r>
       <r>    0.3941    1.0000 </r>
       <r>    2.0263    1.0000 </r>
       <r>    2.3096    1.0000 </r>
       <r>    2.3304    1.0000 </r>
       <r>    3.5369    1.0000 </r>
       <r>    3.7221    1.0000 </r>
       <r>    4.0277    1.0000 </r>
       <r>    4.0625    1.0000 </r>
       <r>    4.2583    0.9993 </r>
       <r>    4.5159    1.0090 </r>
       <r>    4.5914    1.0422 </r>
       <r>    4.6464    1.0490 </r>
       <r>    4.9144    0.0818 </r>
       <r>    5.0374   -0.0474 </r>
       <r>    5.0445   -0.0449 </r>
       <r>    6.2768    0.0000 </r>
       <r>    7.5594    0.0000 </r>
       <r>    8.3892    0.0000 </r>
      </set>
      <set comment="kpoint 11">
       <r>   -2.5056    1.0000 </r>
       <r>    0.0361    1.0000 </r>
       <r>    0.2125    1.0000 </r>
       <r>    0.2242    1.0000 </r>
       <r>    0.4216    1.0000 </r>
       <r>    0.5039    1.0000 </r>
       <r>    0.5472    1.0000 </r>
       <r>    1.9079    1.0000 </r>
       <r>    2.4201    1.0000 </r>
       <r>    2.4300    1.0000 </r>
       <r>    3.4153    1.0000 </r>
       <r>    3.5196    1.0000 </r>
       <r>    3.5999    1.0000 </r>
       <r>    3.7875    1.0000 </r>
       <r>    3.8976    1.0000 </r>
       <r>    4.3313    0.9976 </r>
       <r>    4.4038    0.9952 </r>
       <r>    4.4866    1.0010 </r>
       <r>    4.7657    0.7777 </r>
       <r>    5.0320   -0.0489 </r>
       <r>    5.0332   -0.0486 </r>
       <r>    5.5908    0.0000 </r>
       <r>    8.1544    0.0000 </r>
       <r>    9.0088    0.0000 </r>
      </set>
      <set comment="kpoint 12">
       <r>   -2.1859    1.0000 </r>
       <r>    0.0547    1.0000 </r>
       <r>    0.3920    1.0000 </r>
       <r>    0.4240    1.0000 </r>
       <r>    0.5401    1.0000 </r>
       <r>    0.6905    1.0000 </r>
       <r>    0.7409    1.0000 </r>
       <r>    1.7577    1.0000 </r>
       <r>    2.5507    1.0000 </r>
       <r>    2.5691    1.0000 </r>
       <r>    3.0276    1.0000 </r>
       <r>    3.1283    1.0000 </r>
       <r>    3.2785    1.0000 </r>
       <r>    3.4618    1.0000 </r>
       <r>    3.8741    1.0000 </r>
       <r>    4.1043    1.0000 </r>
       <r>    4.1726    0.9999 </r>
       <r>    4.2588    0.9993 </r>
       <r>    4.5907    1.0419 </r>
       <r>    5.0264   -0.0502 </r>
       <r>    5.0303   -0.0494 </r>
       <r>    5.0500   -0.0428 </r>
       <r>    8.7283    0.0000 </r>
       <r>    9.6494    0.0000 </r>
      </set>
      <set comment="kpoint 13">
       <r>   -1.8029    1.0000 </r>
       <r>   -0.0018    1.0000 </r>
       <r>    0.5981    1.0000 </r>
       <r>    0.6408    1.0000 </r>
       <r>    0.6825    1.0000 </r>
       <r>    0.9192    1.0000 </r>
       <r>    0.9619    1.0000 </r>
       <r>    1.5855    1.0000 </r>
       <r>    2.5665    1.0000 </r>
       <r>    2.6617    1.0000 </r>
       <r>    2.6726    1.0000 </r>
       <r>    2.7504    1.0000 </r>
       <r>    3.0399    1.0000 </r>
       <r>    3.1766    1.0000 </r>
       <r>    3.8629    1.0000 </r>
       <r>    3.9234    1.0000 </r>
       <r>    3.9783    1.0000 </r>
       <r>    3.9954    1.0000 </r>
       <r>    4.3254    0.9978 </r>
       <r>    4.7129    0.9614 </r>
       <r>    5.0242   -0.0507 </r>
       <r>    5.0282   -0.0499 </r>
       <r>    9.2316    0.0000 </r>
       <r>   10.1480    0.0000 </r>
      </set>
      <set comment="kpoint 14">
       <r>   -1.3735    1.0000 </r>
       <r>   -0.1854    1.0000 </r>
       <r>    0.8055    1.0000 </r>
       <r>    0.8400    1.0000 </r>
       <r>    0.8450    1.0000 </r>
       <r>    1.1864    1.0000 </r>
       <r>    1.1964    1.0000 </r>
       <r>    1.4002    1.0000 </r>
       <r>    2.1462    1.0000 </r>
       <r>    2.2459    1.0000 </r>
       <r>    2.6808    1.0000 </r>
       <r>    2.7411    1.0000 </r>
       <r>    2.9605    1.0000 </r>
       <r>    3.2139    1.0000 </r>
       <r>    3.6524    1.0000 </r>
       <r>    3.6968    1.0000 </r>
       <r>    3.7210    1.0000 </r>
       <r>    3.9942    1.0000 </r>
       <r>    4.0967    1.0000 </r>
       <r>    4.5190    1.0101 </r>
       <r>    5.0237   -0.0507 </r>
       <r>    5.0265   -0.0502 </r>
       <r>    9.6187    0.0000 </r>
       <r>   10.1899    0.0000 </r>
      </set>
      <set comment="kpoint 15">
       <r>   -0.9264    1.0000 </r>
       <r>   -0.5090    1.0000 </r>
       <r>    0.9526    1.0000 </r>
       <r>    0.9641    1.0000 </r>
       <r>    1.0227    1.0000 </r>
       <r>    1.2100    1.0000 </r>
       <r>    1.4497    1.0000 </r>
       <r>    1.4871    1.0000 </r>
       <r>    1.7822    1.0000 </r>
       <r>    1.8589    1.0000 </r>
       <r>    2.6148    1.0000 </r>
       <r>    2.6243    1.0000 </r>
       <r>    3.1956    1.0000 </r>
       <r>    3.4065    1.0000 </r>
       <r>    3.4512    1.0000 </r>
       <r>    3.5321    1.0000 </r>
       <r>    3.5491    1.0000 </r>
       <r>    3.6782    1.0000 </r>
       <r>    4.2266    0.9997 </r>
       <r>    4.3662    0.9963 </r>
       <r>    5.0241   -0.0507 </r>
       <r>    5.0252   -0.0505 </r>
       <r>    9.8811    0.0000 </r>
       <r>   10.0600    0.0000 </r>
      </set>
      <set comment="kpoint 16">
       <r>   -2.5888    1.0000 </r>
       <r>    0.1072    1.0000 </r>
       <r>    0.1072    1.0000 </r>
       <r>    0.1440    1.0000 </r>
       <r>    0.4222    1.0000 </r>
       <r>    0.4222    1.0000 </r>
       <r>    0.5118    1.0000 </r>
       <r>    1.9832    1.0000 </r>
       <r>    2.3495    1.0000 </r>
       <r>    2.3812    1.0000 </r>
       <r>    3.5050    1.0000 </r>
       <r>    3.7311    1.0000 </r>
       <r>    3.7538    1.0000 </r>
       <r>    3.7538    1.0000 </r>
       <r>    3.7958    1.0000 </r>
       <r>    4.3952    0.9954 </r>
       <r>    4.5484    1.0221 </r>
       <r>    4.5484    1.0221 </r>
       <r>    4.8970    0.1415 </r>
       <r>    4.8970    0.1415 </r>
       <r>    4.9667   -0.0276 </r>
       <r>    6.8251    0.0000 </r>
       <r>    6.8251    0.0000 </r>
       <r>    8.8455    0.0000 </r>
      </set>
      <set comment="kpoint 17">
       <r>   -2.3483    1.0000 </r>
       <r>    0.1568    1.0000 </r>
       <r>    0.2575    1.0000 </r>
       <r>    0.2745    1.0000 </r>
       <r>    0.5098    1.0000 </r>
       <r>    0.5598    1.0000 </r>
       <r>    0.6755    1.0000 </r>
       <r>    1.8917    1.0000 </r>
       <r>    2.4407    1.0000 </r>
       <r>    2.4525    1.0000 </r>
       <r>    3.2563    1.0000 </r>
       <r>    3.4080    1.0000 </r>
       <r>    3.4165    1.0000 </r>
       <r>    3.4328    1.0000 </r>
       <r>    3.7965    1.0000 </r>
       <r>    4.2312    0.9996 </r>
       <r>    4.3914    0.9955 </r>
       <r>    4.4228    0.9951 </r>
       <r>    4.7252    0.9279 </r>
       <r>    4.8816    0.2029 </r>
       <r>    4.9141    0.0827 </r>
       <r>    6.1246    0.0000 </r>
       <r>    7.3824    0.0000 </r>
       <r>    9.4016    0.0000 </r>
      </set>
      <set comment="kpoint 18">
       <r>   -2.0363    1.0000 </r>
       <r>    0.1787    1.0000 </r>
       <r>    0.4106    1.0000 </r>
       <r>    0.4803    1.0000 </r>
       <r>    0.6230    1.0000 </r>
       <r>    0.7413    1.0000 </r>
       <r>    0.8703    1.0000 </r>
       <r>    1.7613    1.0000 </r>
       <r>    2.5299    1.0000 </r>
       <r>    2.5786    1.0000 </r>
       <r>    2.7852    1.0000 </r>
       <r>    3.0282    1.0000 </r>
       <r>    3.0325    1.0000 </r>
       <r>    3.3103    1.0000 </r>
       <r>    3.9015    1.0000 </r>
       <r>    4.0307    1.0000 </r>
       <r>    4.1863    0.9999 </r>
       <r>    4.2155    0.9997 </r>
       <r>    4.5328    1.0153 </r>
       <r>    4.8713    0.2486 </r>
       <r>    4.8836    0.1947 </r>
       <r>    5.5389    0.0000 </r>
       <r>    7.9136    0.0000 </r>
       <r>    9.9272    0.0000 </r>
      </set>
      <set comment="kpoint 19">
       <r>   -1.6626    1.0000 </r>
       <r>    0.1228    1.0000 </r>
       <r>    0.6002    1.0000 </r>
       <r>    0.7063    1.0000 </r>
       <r>    0.7585    1.0000 </r>
       <r>    0.9626    1.0000 </r>
       <r>    1.0734    1.0000 </r>
       <r>    1.6051    1.0000 </r>
       <r>    2.3508    1.0000 </r>
       <r>    2.5778    1.0000 </r>
       <r>    2.6187    1.0000 </r>
       <r>    2.6976    1.0000 </r>
       <r>    2.7534    1.0000 </r>
       <r>    3.2488    1.0000 </r>
       <r>    3.8165    1.0000 </r>
       <r>    3.9561    1.0000 </r>
       <r>    3.9618    1.0000 </r>
       <r>    4.0334    1.0000 </r>
       <r>    4.2974    0.9986 </r>
       <r>    4.8644    0.2807 </r>
       <r>    4.8671    0.2678 </r>
       <r>    5.0981   -0.0204 </r>
       <r>    8.3940    0.0000 </r>
       <r>    9.9424    0.0000 </r>
      </set>
      <set comment="kpoint 20">
       <r>   -1.2430    1.0000 </r>
       <r>   -0.0641    1.0000 </r>
       <r>    0.8154    1.0000 </r>
       <r>    0.9125    1.0000 </r>
       <r>    0.9203    1.0000 </r>
       <r>    1.2155    1.0000 </r>
       <r>    1.2538    1.0000 </r>
       <r>    1.4337    1.0000 </r>
       <r>    1.9652    1.0000 </r>
       <r>    2.2262    1.0000 </r>
       <r>    2.4838    1.0000 </r>
       <r>    2.5489    1.0000 </r>
       <r>    2.9576    1.0000 </r>
       <r>    3.3043    1.0000 </r>
       <r>    3.6331    1.0000 </r>
       <r>    3.6944    1.0000 </r>
       <r>    3.7371    1.0000 </r>
       <r>    4.0172    1.0000 </r>
       <r>    4.1863    0.9999 </r>
       <r>    4.7862    0.6818 </r>
       <r>    4.8592    0.3055 </r>
       <r>    4.8597    0.3030 </r>
       <r>    8.8062    0.0000 </r>
       <r>    9.7000    0.0000 </r>
      </set>
      <set comment="kpoint 21">
       <r>   -0.8041    1.0000 </r>
       <r>   -0.3902    1.0000 </r>
       <r>    1.0105    1.0000 </r>
       <r>    1.0557    1.0000 </r>
       <r>    1.0802    1.0000 </r>
       <r>    1.2562    1.0000 </r>
       <r>    1.3973    1.0000 </r>
       <r>    1.4677    1.0000 </r>
       <r>    1.6809    1.0000 </r>
       <r>    1.8682    1.0000 </r>
       <r>    2.4222    1.0000 </r>
       <r>    2.4696    1.0000 </r>
       <r>    3.1853    1.0000 </r>
       <r>    3.4324    1.0000 </r>
       <r>    3.4801    1.0000 </r>
       <r>    3.5407    1.0000 </r>
       <r>    3.5806    1.0000 </r>
       <r>    3.7308    1.0000 </r>
       <r>    4.3583    0.9966 </r>
       <r>    4.5528    1.0242 </r>
       <r>    4.8565    0.3189 </r>
       <r>    4.8570    0.3164 </r>
       <r>    9.1483    0.0000 </r>
       <r>    9.4372    0.0000 </r>
      </set>
      <set comment="kpoint 22">
       <r>   -2.1167    1.0000 </r>
       <r>    0.3295    1.0000 </r>
       <r>    0.3295    1.0000 </r>
       <r>    0.3389    1.0000 </r>
       <r>    0.6417    1.0000 </r>
       <r>    0.6417    1.0000 </r>
       <r>    0.8438    1.0000 </r>
       <r>    1.8401    1.0000 </r>
       <r>    2.4845    1.0000 </r>
       <r>    2.5027    1.0000 </r>
       <r>    2.9397    1.0000 </r>
       <r>    2.9397    1.0000 </r>
       <r>    3.1816    1.0000 </r>
       <r>    3.3701    1.0000 </r>
       <r>    3.8652    1.0000 </r>
       <r>    4.0909    1.0000 </r>
       <r>    4.3071    0.9983 </r>
       <r>    4.3071    0.9983 </r>
       <r>    4.6870    1.0130 </r>
       <r>    4.6870    1.0130 </r>
       <r>    4.8093    0.5639 </r>
       <r>    6.6532    0.0000 </r>
       <r>    6.6532    0.0000 </r>
       <r>    9.8435    0.0000 </r>
      </set>
      <set comment="kpoint 23">
       <r>   -1.8166    1.0000 </r>
       <r>    0.3564    1.0000 </r>
       <r>    0.4599    1.0000 </r>
       <r>    0.5430    1.0000 </r>
       <r>    0.7471    1.0000 </r>
       <r>    0.8162    1.0000 </r>
       <r>    1.0329    1.0000 </r>
       <r>    1.7473    1.0000 </r>
       <r>    2.5025    1.0000 </r>
       <r>    2.5144    1.0000 </r>
       <r>    2.6152    1.0000 </r>
       <r>    2.6186    1.0000 </r>
       <r>    2.8701    1.0000 </r>
       <r>    3.2957    1.0000 </r>
       <r>    3.9202    1.0000 </r>
       <r>    3.9936    1.0000 </r>
       <r>    4.1387    1.0000 </r>
       <r>    4.1389    1.0000 </r>
       <r>    4.4702    0.9982 </r>
       <r>    4.6619    1.0408 </r>
       <r>    4.7335    0.9018 </r>
       <r>    6.0282    0.0000 </r>
       <r>    7.1573    0.0000 </r>
       <r>    9.7896    0.0000 </r>
      </set>
      <set comment="kpoint 24">
       <r>   -1.4572    1.0000 </r>
       <r>    0.3006    1.0000 </r>
       <r>    0.6213    1.0000 </r>
       <r>    0.7810    1.0000 </r>
       <r>    0.8719    1.0000 </r>
       <r>    1.0282    1.0000 </r>
       <r>    1.2152    1.0000 </r>
       <r>    1.6220    1.0000 </r>
       <r>    2.1034    1.0000 </r>
       <r>    2.3596    1.0000 </r>
       <r>    2.5118    1.0000 </r>
       <r>    2.5306    1.0000 </r>
       <r>    2.7722    1.0000 </r>
       <r>    3.2549    1.0000 </r>
       <r>    3.7382    1.0000 </r>
       <r>    3.9096    1.0000 </r>
       <r>    3.9374    1.0000 </r>
       <r>    4.1626    0.9999 </r>
       <r>    4.2302    0.9996 </r>
       <r>    4.6472    1.0487 </r>
       <r>    4.6849    1.0161 </r>
       <r>    5.5283    0.0000 </r>
       <r>    7.6230    0.0000 </r>
       <r>    9.4380    0.0000 </r>
      </set>
      <set comment="kpoint 25">
       <r>   -1.0534    1.0000 </r>
       <r>    0.1071    1.0000 </r>
       <r>    0.8213    1.0000 </r>
       <r>    1.0121    1.0000 </r>
       <r>    1.0185    1.0000 </r>
       <r>    1.2604    1.0000 </r>
       <r>    1.3477    1.0000 </r>
       <r>    1.4762    1.0000 </r>
       <r>    1.7566    1.0000 </r>
       <r>    2.1907    1.0000 </r>
       <r>    2.2307    1.0000 </r>
       <r>    2.4454    1.0000 </r>
       <r>    2.9622    1.0000 </r>
       <r>    3.3097    1.0000 </r>
       <r>    3.5864    1.0000 </r>
       <r>    3.6572    1.0000 </r>
       <r>    3.7359    1.0000 </r>
       <r>    3.9659    1.0000 </r>
       <r>    4.3605    0.9965 </r>
       <r>    4.6394    1.0508 </r>
       <r>    4.6566    1.0443 </r>
       <r>    5.1428   -0.0042 </r>
       <r>    8.0422    0.0000 </r>
       <r>    9.0917    0.0000 </r>
      </set>
      <set comment="kpoint 26">
       <r>   -0.6286    1.0000 </r>
       <r>   -0.2221    1.0000 </r>
       <r>    1.0498    1.0000 </r>
       <r>    1.1635    1.0000 </r>
       <r>    1.1871    1.0000 </r>
       <r>    1.3205    1.0000 </r>
       <r>    1.3747    1.0000 </r>
       <r>    1.3817    1.0000 </r>
       <r>    1.6235    1.0000 </r>
       <r>    1.8732    1.0000 </r>
       <r>    2.2405    1.0000 </r>
       <r>    2.3349    1.0000 </r>
       <r>    3.1757    1.0000 </r>
       <r>    3.4085    1.0000 </r>
       <r>    3.4689    1.0000 </r>
       <r>    3.5224    1.0000 </r>
       <r>    3.5800    1.0000 </r>
       <r>    3.7004    1.0000 </r>
       <r>    4.5840    1.0390 </r>
       <r>    4.6374    1.0511 </r>
       <r>    4.6423    1.0502 </r>
       <r>    4.8387    0.4091 </r>
       <r>    8.4160    0.0000 </r>
       <r>    8.7583    0.0000 </r>
      </set>
      <set comment="kpoint 27">
       <r>   -1.5325    1.0000 </r>
       <r>    0.5446    1.0000 </r>
       <r>    0.5762    1.0000 </r>
       <r>    0.5762    1.0000 </r>
       <r>    0.9117    1.0000 </r>
       <r>    0.9117    1.0000 </r>
       <r>    1.2090    1.0000 </r>
       <r>    1.7023    1.0000 </r>
       <r>    2.2334    1.0000 </r>
       <r>    2.2334    1.0000 </r>
       <r>    2.5002    1.0000 </r>
       <r>    2.6571    1.0000 </r>
       <r>    2.6944    1.0000 </r>
       <r>    3.2420    1.0000 </r>
       <r>    3.7797    1.0000 </r>
       <r>    4.0119    1.0000 </r>
       <r>    4.0119    1.0000 </r>
       <r>    4.1544    0.9999 </r>
       <r>    4.4243    0.9951 </r>
       <r>    4.4243    0.9951 </r>
       <r>    4.6058    1.0475 </r>
       <r>    6.5015    0.0000 </r>
       <r>    6.5015    0.0000 </r>
       <r>    9.3408    0.0000 </r>
      </set>
      <set comment="kpoint 28">
       <r>   -1.1934    1.0000 </r>
       <r>    0.5176    1.0000 </r>
       <r>    0.6664    1.0000 </r>
       <r>    0.8207    1.0000 </r>
       <r>    1.0219    1.0000 </r>
       <r>    1.1139    1.0000 </r>
       <r>    1.3694    1.0000 </r>
       <r>    1.6235    1.0000 </r>
       <r>    1.8843    1.0000 </r>
       <r>    2.0496    1.0000 </r>
       <r>    2.4042    1.0000 </r>
       <r>    2.4629    1.0000 </r>
       <r>    2.8189    1.0000 </r>
       <r>    3.2070    1.0000 </r>
       <r>    3.6276    1.0000 </r>
       <r>    3.8175    1.0000 </r>
       <r>    3.8447    1.0000 </r>
       <r>    4.1695    0.9999 </r>
       <r>    4.3628    0.9964 </r>
       <r>    4.3990    0.9953 </r>
       <r>    4.5108    1.0073 </r>
       <r>    5.9614    0.0000 </r>
       <r>    6.9483    0.0000 </r>
       <r>    8.8976    0.0000 </r>
      </set>
      <set comment="kpoint 29">
       <r>   -0.8125    1.0000 </r>
       <r>    0.3123    1.0000 </r>
       <r>    0.8255    1.0000 </r>
       <r>    1.0649    1.0000 </r>
       <r>    1.1419    1.0000 </r>
       <r>    1.3352    1.0000 </r>
       <r>    1.4688    1.0000 </r>
       <r>    1.5180    1.0000 </r>
       <r>    1.5875    1.0000 </r>
       <r>    2.0102    1.0000 </r>
       <r>    2.1343    1.0000 </r>
       <r>    2.3722    1.0000 </r>
       <r>    2.9778    1.0000 </r>
       <r>    3.2566    1.0000 </r>
       <r>    3.5024    1.0000 </r>
       <r>    3.5901    1.0000 </r>
       <r>    3.6673    1.0000 </r>
       <r>    3.9026    1.0000 </r>
       <r>    4.3890    0.9955 </r>
       <r>    4.4475    0.9959 </r>
       <r>    4.6036    1.0468 </r>
       <r>    5.5278    0.0000 </r>
       <r>    7.3632    0.0000 </r>
       <r>    8.4936    0.0000 </r>
      </set>
      <set comment="kpoint 30">
       <r>   -0.4102    1.0000 </r>
       <r>   -0.0184    1.0000 </r>
       <r>    1.0197    1.0000 </r>
       <r>    1.2096    1.0000 </r>
       <r>    1.2684    1.0000 </r>
       <r>    1.3503    1.0000 </r>
       <r>    1.3964    1.0000 </r>
       <r>    1.4555    1.0000 </r>
       <r>    1.6228    1.0000 </r>
       <r>    1.8694    1.0000 </r>
       <r>    2.0941    1.0000 </r>
       <r>    2.2347    1.0000 </r>
       <r>    3.1591    1.0000 </r>
       <r>    3.3640    1.0000 </r>
       <r>    3.4116    1.0000 </r>
       <r>    3.4579    1.0000 </r>
       <r>    3.5219    1.0000 </r>
       <r>    3.6401    1.0000 </r>
       <r>    4.3921    0.9955 </r>
       <r>    4.4101    0.9951 </r>
       <r>    4.8720    0.2455 </r>
       <r>    5.1741    0.0020 </r>
       <r>    7.7489    0.0000 </r>
       <r>    8.1184    0.0000 </r>
      </set>
      <set comment="kpoint 31">
       <r>   -0.8803    1.0000 </r>
       <r>    0.7373    1.0000 </r>
       <r>    0.7493    1.0000 </r>
       <r>    0.7493    1.0000 </r>
       <r>    1.2068    1.0000 </r>
       <r>    1.2068    1.0000 </r>
       <r>    1.5093    1.0000 </r>
       <r>    1.5996    1.0000 </r>
       <r>    1.7828    1.0000 </r>
       <r>    1.7828    1.0000 </r>
       <r>    2.2416    1.0000 </r>
       <r>    2.4098    1.0000 </r>
       <r>    2.8969    1.0000 </r>
       <r>    3.1674    1.0000 </r>
       <r>    3.4984    1.0000 </r>
       <r>    3.6827    1.0000 </r>
       <r>    3.6827    1.0000 </r>
       <r>    4.1352    1.0000 </r>
       <r>    4.1352    1.0000 </r>
       <r>    4.3650    0.9964 </r>
       <r>    4.6101    1.0488 </r>
       <r>    6.3822    0.0000 </r>
       <r>    6.3822    0.0000 </r>
       <r>    8.3989    0.0000 </r>
      </set>
      <set comment="kpoint 32">
       <r>   -0.5311    1.0000 </r>
       <r>    0.5246    1.0000 </r>
       <r>    0.8328    1.0000 </r>
       <r>    0.9474    1.0000 </r>
       <r>    1.2975    1.0000 </r>
       <r>    1.4199    1.0000 </r>
       <r>    1.5482    1.0000 </r>
       <r>    1.5868    1.0000 </r>
       <r>    1.5935    1.0000 </r>
       <r>    1.8423    1.0000 </r>
       <r>    2.0539    1.0000 </r>
       <r>    2.3164    1.0000 </r>
       <r>    2.9920    1.0000 </r>
       <r>    3.2184    1.0000 </r>
       <r>    3.3867    1.0000 </r>
       <r>    3.4815    1.0000 </r>
       <r>    3.5306    1.0000 </r>
       <r>    3.8665    1.0000 </r>
       <r>    4.1269    1.0000 </r>
       <r>    4.2558    0.9994 </r>
       <r>    4.8880    0.1764 </r>
       <r>    5.9170    0.0000 </r>
       <r>    6.7846    0.0000 </r>
       <r>    7.9557    0.0000 </r>
      </set>
      <set comment="kpoint 33">
       <r>   -0.1630    1.0000 </r>
       <r>    0.2006    1.0000 </r>
       <r>    0.9423    1.0000 </r>
       <r>    1.0174    1.0000 </r>
       <r>    1.3882    1.0000 </r>
       <r>    1.4747    1.0000 </r>
       <r>    1.5282    1.0000 </r>
       <r>    1.5842    1.0000 </r>
       <r>    1.6436    1.0000 </r>
       <r>    1.8548    1.0000 </r>
       <r>    1.9948    1.0000 </r>
       <r>    2.1688    1.0000 </r>
       <r>    3.1127    1.0000 </r>
       <r>    3.2805    1.0000 </r>
       <r>    3.3456    1.0000 </r>
       <r>    3.3803    1.0000 </r>
       <r>    3.4023    1.0000 </r>
       <r>    3.6075    1.0000 </r>
       <r>    4.1421    1.0000 </r>
       <r>    4.1832    0.9999 </r>
       <r>    5.1921    0.0038 </r>
       <r>    5.5290    0.0000 </r>
       <r>    7.1712    0.0000 </r>
       <r>    7.5544    0.0000 </r>
      </set>
      <set comment="kpoint 34">
       <r>   -0.2231    1.0000 </r>
       <r>    0.7037    1.0000 </r>
       <r>    0.7037    1.0000 </r>
       <r>    0.8434    1.0000 </r>
       <r>    1.4683    1.0000 </r>
       <r>    1.4683    1.0000 </r>
       <r>    1.5579    1.0000 </r>
       <r>    1.6836    1.0000 </r>
       <r>    1.7487    1.0000 </r>
       <r>    1.7487    1.0000 </r>
       <r>    1.9527    1.0000 </r>
       <r>    2.2443    1.0000 </r>
       <r>    2.9934    1.0000 </r>
       <r>    3.2716    1.0000 </r>
       <r>    3.2763    1.0000 </r>
       <r>    3.3520    1.0000 </r>
       <r>    3.3520    1.0000 </r>
       <r>    3.8676    1.0000 </r>
       <r>    3.8676    1.0000 </r>
       <r>    4.0971    1.0000 </r>
       <r>    5.1979    0.0042 </r>
       <r>    6.3011    0.0000 </r>
       <r>    6.3011    0.0000 </r>
       <r>    7.4861    0.0000 </r>
      </set>
      <set comment="kpoint 35">
       <r>    0.0960    1.0000 </r>
       <r>    0.4103    1.0000 </r>
       <r>    0.8109    1.0000 </r>
       <r>    0.8458    1.0000 </r>
       <r>    1.5116    1.0000 </r>
       <r>    1.5443    1.0000 </r>
       <r>    1.6211    1.0000 </r>
       <r>    1.6974    1.0000 </r>
       <r>    1.7512    1.0000 </r>
       <r>    1.8418    1.0000 </r>
       <r>    1.9434    1.0000 </r>
       <r>    2.1194    1.0000 </r>
       <r>    3.0451    1.0000 </r>
       <r>    3.1748    1.0000 </r>
       <r>    3.2124    1.0000 </r>
       <r>    3.2459    1.0000 </r>
       <r>    3.4227    1.0000 </r>
       <r>    3.6266    1.0000 </r>
       <r>    3.9045    1.0000 </r>
       <r>    3.9798    1.0000 </r>
       <r>    5.5298    0.0000 </r>
       <r>    5.8913    0.0000 </r>
       <r>    6.6815    0.0000 </r>
       <r>    7.0695    0.0000 </r>
      </set>
      <set comment="kpoint 36">
       <r>    0.3503    1.0000 </r>
       <r>    0.5895    1.0000 </r>
       <r>    0.5895    1.0000 </r>
       <r>    0.7318    1.0000 </r>
       <r>    1.5951    1.0000 </r>
       <r>    1.6217    1.0000 </r>
       <r>    1.6217    1.0000 </r>
       <r>    1.6995    1.0000 </r>
       <r>    1.8808    1.0000 </r>
       <r>    1.9193    1.0000 </r>
       <r>    1.9193    1.0000 </r>
       <r>    2.0469    1.0000 </r>
       <r>    3.0267    1.0000 </r>
       <r>    3.1017    1.0000 </r>
       <r>    3.1017    1.0000 </r>
       <r>    3.1135    1.0000 </r>
       <r>    3.5316    1.0000 </r>
       <r>    3.6959    1.0000 </r>
       <r>    3.6959    1.0000 </r>
       <r>    3.8144    1.0000 </r>
       <r>    5.8829    0.0000 </r>
       <r>    6.2603    0.0000 </r>
       <r>    6.2603    0.0000 </r>
       <r>    6.6463    0.0000 </r>
      </set>
      <set comment="kpoint 37">
       <r>   -2.8359    1.0000 </r>
       <r>   -0.0032    1.0000 </r>
       <r>   -0.0032    1.0000 </r>
       <r>   -0.0032    1.0000 </r>
       <r>    0.3207    1.0000 </r>
       <r>    0.3207    1.0000 </r>
       <r>    0.3207    1.0000 </r>
       <r>    2.0825    1.0000 </r>
       <r>    2.2754    1.0000 </r>
       <r>    2.2754    1.0000 </r>
       <r>    3.6423    1.0000 </r>
       <r>    3.6423    1.0000 </r>
       <r>    4.3210    0.9979 </r>
       <r>    4.3210    0.9979 </r>
       <r>    4.3210    0.9979 </r>
       <r>    4.5754    1.0350 </r>
       <r>    4.5754    1.0350 </r>
       <r>    4.5754    1.0350 </r>
       <r>    5.0413   -0.0461 </r>
       <r>    5.0413   -0.0461 </r>
       <r>    5.0413   -0.0461 </r>
       <r>    7.3171    0.0000 </r>
       <r>    7.3171    0.0000 </r>
       <r>    7.3171    0.0000 </r>
      </set>
      <set comment="kpoint 38">
       <r>   -2.6711    1.0000 </r>
       <r>    0.0406    1.0000 </r>
       <r>    0.0954    1.0000 </r>
       <r>    0.0954    1.0000 </r>
       <r>    0.3825    1.0000 </r>
       <r>    0.4251    1.0000 </r>
       <r>    0.4251    1.0000 </r>
       <r>    2.0192    1.0000 </r>
       <r>    2.3296    1.0000 </r>
       <r>    2.3387    1.0000 </r>
       <r>    3.5565    1.0000 </r>
       <r>    3.6945    1.0000 </r>
       <r>    3.9149    1.0000 </r>
       <r>    3.9149    1.0000 </r>
       <r>    4.0548    1.0000 </r>
       <r>    4.4429    0.9957 </r>
       <r>    4.4577    0.9968 </r>
       <r>    4.4577    0.9968 </r>
       <r>    4.9823   -0.0418 </r>
       <r>    5.0197   -0.0513 </r>
       <r>    5.0197   -0.0513 </r>
       <r>    6.5866    0.0000 </r>
       <r>    7.8058    0.0000 </r>
       <r>    7.8058    0.0000 </r>
      </set>
      <set comment="kpoint 39">
       <r>   -2.4281    1.0000 </r>
       <r>    0.0868    1.0000 </r>
       <r>    0.2375    1.0000 </r>
       <r>    0.2375    1.0000 </r>
       <r>    0.4733    1.0000 </r>
       <r>    0.5779    1.0000 </r>
       <r>    0.5779    1.0000 </r>
       <r>    1.9102    1.0000 </r>
       <r>    2.4248    1.0000 </r>
       <r>    2.4332    1.0000 </r>
       <r>    3.4420    1.0000 </r>
       <r>    3.4531    1.0000 </r>
       <r>    3.4531    1.0000 </r>
       <r>    3.6861    1.0000 </r>
       <r>    3.7705    1.0000 </r>
       <r>    4.2603    0.9993 </r>
       <r>    4.3027    0.9985 </r>
       <r>    4.3027    0.9985 </r>
       <r>    4.8978    0.1385 </r>
       <r>    4.9943   -0.0482 </r>
       <r>    4.9943   -0.0482 </r>
       <r>    5.8728    0.0000 </r>
       <r>    8.3538    0.0000 </r>
       <r>    8.3538    0.0000 </r>
      </set>
      <set comment="kpoint 40">
       <r>   -2.1129    1.0000 </r>
       <r>    0.1054    1.0000 </r>
       <r>    0.4169    1.0000 </r>
       <r>    0.4169    1.0000 </r>
       <r>    0.5903    1.0000 </r>
       <r>    0.7707    1.0000 </r>
       <r>    0.7707    1.0000 </r>
       <r>    1.7680    1.0000 </r>
       <r>    2.5396    1.0000 </r>
       <r>    2.5582    1.0000 </r>
       <r>    2.9920    1.0000 </r>
       <r>    2.9920    1.0000 </r>
       <r>    3.2663    1.0000 </r>
       <r>    3.3247    1.0000 </r>
       <r>    3.8677    1.0000 </r>
       <r>    4.0430    1.0000 </r>
       <r>    4.1020    1.0000 </r>
       <r>    4.1020    1.0000 </r>
       <r>    4.7917    0.6546 </r>
       <r>    4.9743   -0.0355 </r>
       <r>    4.9743   -0.0355 </r>
       <r>    5.2456    0.0047 </r>
       <r>    8.8921    0.0000 </r>
       <r>    8.8921    0.0000 </r>
      </set>
      <set comment="kpoint 41">
       <r>   -1.7355    1.0000 </r>
       <r>    0.0489    1.0000 </r>
       <r>    0.6246    1.0000 </r>
       <r>    0.6246    1.0000 </r>
       <r>    0.7299    1.0000 </r>
       <r>    0.9877    1.0000 </r>
       <r>    0.9877    1.0000 </r>
       <r>    1.6031    1.0000 </r>
       <r>    2.5553    1.0000 </r>
       <r>    2.5553    1.0000 </r>
       <r>    2.6254    1.0000 </r>
       <r>    2.7125    1.0000 </r>
       <r>    2.8801    1.0000 </r>
       <r>    3.2653    1.0000 </r>
       <r>    3.8061    1.0000 </r>
       <r>    3.8774    1.0000 </r>
       <r>    3.8774    1.0000 </r>
       <r>    3.9828    1.0000 </r>
       <r>    4.6686    1.0353 </r>
       <r>    4.7144    0.9575 </r>
       <r>    4.9613   -0.0208 </r>
       <r>    4.9613   -0.0208 </r>
       <r>    9.3564    0.0000 </r>
       <r>    9.3564    0.0000 </r>
      </set>
      <set comment="kpoint 42">
       <r>   -1.3122    1.0000 </r>
       <r>   -0.1349    1.0000 </r>
       <r>    0.8388    1.0000 </r>
       <r>    0.8388    1.0000 </r>
       <r>    0.8881    1.0000 </r>
       <r>    1.2064    1.0000 </r>
       <r>    1.2064    1.0000 </r>
       <r>    1.4247    1.0000 </r>
       <r>    2.1608    1.0000 </r>
       <r>    2.1608    1.0000 </r>
       <r>    2.6158    1.0000 </r>
       <r>    2.6192    1.0000 </r>
       <r>    2.8940    1.0000 </r>
       <r>    3.3504    1.0000 </r>
       <r>    3.5630    1.0000 </r>
       <r>    3.6712    1.0000 </r>
       <r>    3.6712    1.0000 </r>
       <r>    4.1117    1.0000 </r>
       <r>    4.2657    0.9992 </r>
       <r>    4.5337    1.0157 </r>
       <r>    4.9537   -0.0098 </r>
       <r>    4.9537   -0.0098 </r>
       <r>    9.6783    0.0000 </r>
       <r>    9.6783    0.0000 </r>
      </set>
      <set comment="kpoint 43">
       <r>   -0.8709    1.0000 </r>
       <r>   -0.4575    1.0000 </r>
       <r>    0.9970    1.0000 </r>
       <r>    0.9970    1.0000 </r>
       <r>    1.0603    1.0000 </r>
       <r>    1.2413    1.0000 </r>
       <r>    1.4011    1.0000 </r>
       <r>    1.4011    1.0000 </r>
       <r>    1.8496    1.0000 </r>
       <r>    1.8496    1.0000 </r>
       <r>    2.5218    1.0000 </r>
       <r>    2.5479    1.0000 </r>
       <r>    3.0995    1.0000 </r>
       <r>    3.3247    1.0000 </r>
       <r>    3.5422    1.0000 </r>
       <r>    3.5422    1.0000 </r>
       <r>    3.5748    1.0000 </r>
       <r>    3.8864    1.0000 </r>
       <r>    4.2498    0.9994 </r>
       <r>    4.3923    0.9954 </r>
       <r>    4.9503   -0.0041 </r>
       <r>    4.9503   -0.0041 </r>
       <r>    9.8275    0.0000 </r>
       <r>    9.8275    0.0000 </r>
      </set>
      <set comment="kpoint 44">
       <r>   -2.5108    1.0000 </r>
       <r>    0.1390    1.0000 </r>
       <r>    0.1390    1.0000 </r>
       <r>    0.1668    1.0000 </r>
       <r>    0.4865    1.0000 </r>
       <r>    0.4865    1.0000 </r>
       <r>    0.5441    1.0000 </r>
       <r>    1.9826    1.0000 </r>
       <r>    2.3654    1.0000 </r>
       <r>    2.3818    1.0000 </r>
       <r>    3.5456    1.0000 </r>
       <r>    3.6514    1.0000 </r>
       <r>    3.6514    1.0000 </r>
       <r>    3.6625    1.0000 </r>
       <r>    3.6932    1.0000 </r>
       <r>    4.2982    0.9986 </r>
       <r>    4.3312    0.9976 </r>
       <r>    4.3312    0.9976 </r>
       <r>    4.9722   -0.0334 </r>
       <r>    4.9722   -0.0334 </r>
       <r>    4.9813   -0.0411 </r>
       <r>    7.0503    0.0000 </r>
       <r>    7.0503    0.0000 </r>
       <r>    8.2150    0.0000 </r>
      </set>
      <set comment="kpoint 45">
       <r>   -2.2748    1.0000 </r>
       <r>    0.1847    1.0000 </r>
       <r>    0.2771    1.0000 </r>
       <r>    0.2802    1.0000 </r>
       <r>    0.5764    1.0000 </r>
       <r>    0.6389    1.0000 </r>
       <r>    0.7089    1.0000 </r>
       <r>    1.9009    1.0000 </r>
       <r>    2.4402    1.0000 </r>
       <r>    2.4498    1.0000 </r>
       <r>    3.2028    1.0000 </r>
       <r>    3.3064    1.0000 </r>
       <r>    3.3103    1.0000 </r>
       <r>    3.4648    1.0000 </r>
       <r>    3.7685    1.0000 </r>
       <r>    4.1452    1.0000 </r>
       <r>    4.1473    1.0000 </r>
       <r>    4.2128    0.9998 </r>
       <r>    4.8975    0.1396 </r>
       <r>    4.9308    0.0366 </r>
       <r>    4.9321    0.0334 </r>
       <r>    6.3126    0.0000 </r>
       <r>    7.5607    0.0000 </r>
       <r>    8.6968    0.0000 </r>
      </set>
      <set comment="kpoint 46">
       <r>   -1.9689    1.0000 </r>
       <r>    0.2029    1.0000 </r>
       <r>    0.4265    1.0000 </r>
       <r>    0.4585    1.0000 </r>
       <r>    0.6911    1.0000 </r>
       <r>    0.8309    1.0000 </r>
       <r>    0.9034    1.0000 </r>
       <r>    1.7803    1.0000 </r>
       <r>    2.5203    1.0000 </r>
       <r>    2.5554    1.0000 </r>
       <r>    2.7648    1.0000 </r>
       <r>    2.9138    1.0000 </r>
       <r>    2.9422    1.0000 </r>
       <r>    3.3780    1.0000 </r>
       <r>    3.8834    1.0000 </r>
       <r>    3.9288    1.0000 </r>
       <r>    3.9748    1.0000 </r>
       <r>    4.0549    1.0000 </r>
       <r>    4.7869    0.6785 </r>
       <r>    4.8857    0.1859 </r>
       <r>    4.8868    0.1813 </r>
       <r>    5.6581    0.0000 </r>
       <r>    8.0644    0.0000 </r>
       <r>    9.1714    0.0000 </r>
      </set>
      <set comment="kpoint 47">
       <r>   -1.6029    1.0000 </r>
       <r>    0.1455    1.0000 </r>
       <r>    0.6127    1.0000 </r>
       <r>    0.6667    1.0000 </r>
       <r>    0.8256    1.0000 </r>
       <r>    1.0425    1.0000 </r>
       <r>    1.1012    1.0000 </r>
       <r>    1.6335    1.0000 </r>
       <r>    2.3615    1.0000 </r>
       <r>    2.5283    1.0000 </r>
       <r>    2.5597    1.0000 </r>
       <r>    2.6211    1.0000 </r>
       <r>    2.6923    1.0000 </r>
       <r>    3.3571    1.0000 </r>
       <r>    3.6958    1.0000 </r>
       <r>    3.7868    1.0000 </r>
       <r>    3.8646    1.0000 </r>
       <r>    4.0220    1.0000 </r>
       <r>    4.6207    1.0510 </r>
       <r>    4.8507    0.3477 </r>
       <r>    4.8527    0.3375 </r>
       <r>    5.1229   -0.0104 </r>
       <r>    8.5277    0.0000 </r>
       <r>    9.5306    0.0000 </r>
      </set>
      <set comment="kpoint 48">
       <r>   -1.1924    1.0000 </r>
       <r>   -0.0392    1.0000 </r>
       <r>    0.8280    1.0000 </r>
       <r>    0.8908    1.0000 </r>
       <r>    0.9750    1.0000 </r>
       <r>    1.2308    1.0000 </r>
       <r>    1.2575    1.0000 </r>
       <r>    1.4714    1.0000 </r>
       <r>    2.0239    1.0000 </r>
       <r>    2.1829    1.0000 </r>
       <r>    2.4241    1.0000 </r>
       <r>    2.5197    1.0000 </r>
       <r>    2.8522    1.0000 </r>
       <r>    3.4630    1.0000 </r>
       <r>    3.4669    1.0000 </r>
       <r>    3.6146    1.0000 </r>
       <r>    3.6750    1.0000 </r>
       <r>    4.1774    0.9999 </r>
       <r>    4.3517    0.9969 </r>
       <r>    4.7567    0.8161 </r>
       <r>    4.8290    0.4597 </r>
       <r>    4.8309    0.4500 </r>
       <r>    8.9270    0.0000 </r>
       <r>    9.6296    0.0000 </r>
      </set>
      <set comment="kpoint 49">
       <r>   -0.7635    1.0000 </r>
       <r>   -0.3590    1.0000 </r>
       <r>    1.0406    1.0000 </r>
       <r>    1.0807    1.0000 </r>
       <r>    1.1354    1.0000 </r>
       <r>    1.3029    1.0000 </r>
       <r>    1.3062    1.0000 </r>
       <r>    1.3107    1.0000 </r>
       <r>    1.8453    1.0000 </r>
       <r>    1.9265    1.0000 </r>
       <r>    2.3765    1.0000 </r>
       <r>    2.4331    1.0000 </r>
       <r>    3.0356    1.0000 </r>
       <r>    3.2406    1.0000 </r>
       <r>    3.5167    1.0000 </r>
       <r>    3.5404    1.0000 </r>
       <r>    3.6989    1.0000 </r>
       <r>    4.0107    1.0000 </r>
       <r>    4.3457    0.9971 </r>
       <r>    4.5290    1.0138 </r>
       <r>    4.8194    0.5108 </r>
       <r>    4.8201    0.5069 </r>
       <r>    9.2511    0.0000 </r>
       <r>    9.4964    0.0000 </r>
      </set>
      <set comment="kpoint 50">
       <r>   -2.0493    1.0000 </r>
       <r>    0.3241    1.0000 </r>
       <r>    0.3241    1.0000 </r>
       <r>    0.3520    1.0000 </r>
       <r>    0.7286    1.0000 </r>
       <r>    0.7286    1.0000 </r>
       <r>    0.8786    1.0000 </r>
       <r>    1.8601    1.0000 </r>
       <r>    2.4771    1.0000 </r>
       <r>    2.4879    1.0000 </r>
       <r>    2.8963    1.0000 </r>
       <r>    2.8963    1.0000 </r>
       <r>    3.0747    1.0000 </r>
       <r>    3.4385    1.0000 </r>
       <r>    3.8344    1.0000 </r>
       <r>    3.9798    1.0000 </r>
       <r>    4.0530    1.0000 </r>
       <r>    4.0530    1.0000 </r>
       <r>    4.8440    0.3814 </r>
       <r>    4.8440    0.3814 </r>
       <r>    4.8589    0.3070 </r>
       <r>    6.7974    0.0000 </r>
       <r>    6.7974    0.0000 </r>
       <r>    9.1045    0.0000 </r>
      </set>
      <set comment="kpoint 51">
       <r>   -1.7577    1.0000 </r>
       <r>    0.3394    1.0000 </r>
       <r>    0.4653    1.0000 </r>
       <r>    0.4984    1.0000 </r>
       <r>    0.8418    1.0000 </r>
       <r>    0.9213    1.0000 </r>
       <r>    1.0664    1.0000 </r>
       <r>    1.7797    1.0000 </r>
       <r>    2.4972    1.0000 </r>
       <r>    2.5051    1.0000 </r>
       <r>    2.5732    1.0000 </r>
       <r>    2.5845    1.0000 </r>
       <r>    2.7843    1.0000 </r>
       <r>    3.3882    1.0000 </r>
       <r>    3.8191    1.0000 </r>
       <r>    3.8453    1.0000 </r>
       <r>    3.9354    1.0000 </r>
       <r>    3.9669    1.0000 </r>
       <r>    4.7203    0.9418 </r>
[...]
       <r>    5.4317    0.0002 </r>
       <r>    5.9527    0.0000 </r>
       <r>    5.9527    0.0000 </r>
       <r>    6.3920    0.0000 </r>
      </set>
      <set comment="kpoint 117">
       <r>   -0.5261    1.0000 </r>
       <r>   -0.2740    1.0000 </r>
       <r>   -0.2740    1.0000 </r>
       <r>   -0.2740    1.0000 </r>
       <r>    2.0155    1.0000 </r>
       <r>    2.0155    1.0000 </r>
       <r>    2.0155    1.0000 </r>
       <r>    2.2186    1.0000 </r>
       <r>    2.2186    1.0000 </r>
       <r>    2.3348    1.0000 </r>
       <r>    2.3348    1.0000 </r>
       <r>    2.3348    1.0000 </r>
       <r>    3.6290    1.0000 </r>
       <r>    3.6290    1.0000 </r>
       <r>    3.6290    1.0000 </r>
       <r>    3.9214    1.0000 </r>
       <r>    4.6299    1.0516 </r>
       <r>    4.6299    1.0516 </r>
       <r>    4.8508    0.3473 </r>
       <r>    4.8508    0.3473 </r>
       <r>    4.8508    0.3473 </r>
       <r>    6.3564    0.0000 </r>
       <r>    6.3564    0.0000 </r>
       <r>    6.3564    0.0000 </r>
      </set>
      <set comment="kpoint 118">
       <r>   -0.4814    1.0000 </r>
       <r>   -0.3970    1.0000 </r>
       <r>   -0.3174    1.0000 </r>
       <r>   -0.3174    1.0000 </r>
       <r>    2.0416    1.0000 </r>
       <r>    2.0416    1.0000 </r>
       <r>    2.1042    1.0000 </r>
       <r>    2.1731    1.0000 </r>
       <r>    2.2176    1.0000 </r>
       <r>    2.2567    1.0000 </r>
       <r>    2.2862    1.0000 </r>
       <r>    2.2862    1.0000 </r>
       <r>    3.8609    1.0000 </r>
       <r>    3.8609    1.0000 </r>
       <r>    3.8809    1.0000 </r>
       <r>    4.0634    1.0000 </r>
       <r>    4.7588    0.8070 </r>
       <r>    4.8197    0.5089 </r>
       <r>    4.8197    0.5089 </r>
       <r>    4.8340    0.4335 </r>
       <r>    4.9382    0.0194 </r>
       <r>    5.6038    0.0000 </r>
       <r>    6.3727    0.0000 </r>
       <r>    6.3727    0.0000 </r>
      </set>
      <set comment="kpoint 119">
       <r>   -0.4704    1.0000 </r>
       <r>   -0.4156    1.0000 </r>
       <r>   -0.4156    1.0000 </r>
       <r>   -0.3890    1.0000 </r>
       <r>    2.0915    1.0000 </r>
       <r>    2.1125    1.0000 </r>
       <r>    2.1125    1.0000 </r>
       <r>    2.1622    1.0000 </r>
       <r>    2.1893    1.0000 </r>
       <r>    2.2176    1.0000 </r>
       <r>    2.2176    1.0000 </r>
       <r>    2.2273    1.0000 </r>
       <r>    4.1348    1.0000 </r>
       <r>    4.1647    0.9999 </r>
       <r>    4.1647    0.9999 </r>
       <r>    4.3421    0.9972 </r>
       <r>    4.7276    0.9206 </r>
       <r>    4.8026    0.5986 </r>
       <r>    4.8026    0.5986 </r>
       <r>    4.8036    0.5938 </r>
       <r>    5.2063    0.0046 </r>
       <r>    5.7546    0.0000 </r>
       <r>    5.7546    0.0000 </r>
       <r>    6.0475    0.0000 </r>
      </set>
      <set comment="kpoint 120">
       <r>   -0.4899    1.0000 </r>
       <r>   -0.4627    1.0000 </r>
       <r>   -0.4627    1.0000 </r>
       <r>   -0.4627    1.0000 </r>
       <r>    2.1374    1.0000 </r>
       <r>    2.1374    1.0000 </r>
       <r>    2.1374    1.0000 </r>
       <r>    2.1614    1.0000 </r>
       <r>    2.1614    1.0000 </r>
       <r>    2.1742    1.0000 </r>
       <r>    2.1742    1.0000 </r>
       <r>    2.1742    1.0000 </r>
       <r>    4.5295    1.0140 </r>
       <r>    4.5295    1.0140 </r>
       <r>    4.5295    1.0140 </r>
       <r>    4.8128    0.5456 </r>
       <r>    4.8128    0.5456 </r>
       <r>    4.8387    0.4092 </r>
       <r>    4.8387    0.4092 </r>
       <r>    4.8387    0.4092 </r>
       <r>    5.0438   -0.0452 </r>
       <r>    5.5546    0.0000 </r>
       <r>    5.5546    0.0000 </r>
       <r>    5.5546    0.0000 </r>
      </set>
     </set>
    </set>
   </array>
  </eigenvalues>
  <separator name="orbital magnetization" >
   <v name="MAGDIPOLOUT">      0.00000000      0.00000000      0.00000000</v>
  </separator>
  <dos>
   <i name="efermi">      4.82140733 </i>
   <total>
    <array>
     <dimension dim="1">gridpoints</dimension>
     <dimension dim="2">spin</dimension>
     <field>energy</field>
     <field>total</field>
     <field>integrated</field>
     <set>
      <set comment="spin 1">
       <r>    -5.0888     0.0000     0.0000 </r>
       <r>    -5.0304     0.0000     0.0000 </r>
       <r>    -4.9719     0.0000     0.0000 </r>
       <r>    -4.9135     0.0000     0.0000 </r>
       <r>    -4.8551     0.0000     0.0000 </r>
       <r>    -4.7966     0.0000     0.0000 </r>
       <r>    -4.7382     0.0000     0.0000 </r>
       <r>    -4.6798     0.0000     0.0000 </r>
       <r>    -4.6213     0.0000     0.0000 </r>
       <r>    -4.5629     0.0000     0.0000 </r>
       <r>    -4.5045     0.0000     0.0000 </r>
       <r>    -4.4460     0.0000     0.0000 </r>
       <r>    -4.3876     0.0000     0.0000 </r>
       <r>    -4.3292     0.0000     0.0000 </r>
       <r>    -4.2707     0.0000     0.0000 </r>
       <r>    -4.2123     0.0000     0.0000 </r>
       <r>    -4.1539     0.0000     0.0000 </r>
       <r>    -4.0954     0.0000     0.0000 </r>
       <r>    -4.0370     0.0000     0.0000 </r>
       <r>    -3.9786     0.0000     0.0000 </r>
       <r>    -3.9201     0.0000     0.0000 </r>
       <r>    -3.8617     0.0000     0.0000 </r>
       <r>    -3.8033     0.0000     0.0000 </r>
       <r>    -3.7448     0.0000     0.0000 </r>
       <r>    -3.6864     0.0000     0.0000 </r>
       <r>    -3.6280     0.0001     0.0000 </r>
       <r>    -3.5695     0.0002     0.0000 </r>
       <r>    -3.5111     0.0004     0.0000 </r>
       <r>    -3.4527     0.0005     0.0001 </r>
       <r>    -3.3942    -0.0001     0.0001 </r>
       <r>    -3.3358    -0.0021    -0.0001 </r>
       <r>    -3.2774    -0.0046    -0.0003 </r>
       <r>    -3.2189    -0.0038    -0.0005 </r>
       <r>    -3.1605     0.0065    -0.0002 </r>
       <r>    -3.1021     0.0303     0.0016 </r>
       <r>    -3.0436     0.0652     0.0054 </r>
       <r>    -2.9852     0.1035     0.0115 </r>
       <r>    -2.9268     0.1393     0.0196 </r>
       <r>    -2.8683     0.1707     0.0296 </r>
       <r>    -2.8099     0.1952     0.0410 </r>
       <r>    -2.7515     0.2101     0.0533 </r>
       <r>    -2.6930     0.2210     0.0662 </r>
       <r>    -2.6346     0.2408     0.0802 </r>
       <r>    -2.5762     0.2720     0.0961 </r>
       <r>    -2.5177     0.2982     0.1136 </r>
       <r>    -2.4593     0.3046     0.1314 </r>
       <r>    -2.4009     0.3010     0.1489 </r>
       <r>    -2.3424     0.3098     0.1670 </r>
       <r>    -2.2840     0.3383     0.1868 </r>
       <r>    -2.2256     0.3751     0.2087 </r>
       <r>    -2.1671     0.4063     0.2325 </r>
       <r>    -2.1087     0.4215     0.2571 </r>
       <r>    -2.0503     0.4142     0.2813 </r>
       <r>    -1.9918     0.3945     0.3044 </r>
       <r>    -1.9334     0.3946     0.3274 </r>
       <r>    -1.8750     0.4409     0.3532 </r>
       <r>    -1.8165     0.5167     0.3834 </r>
       <r>    -1.7581     0.5692     0.4166 </r>
       <r>    -1.6997     0.5622     0.4495 </r>
       <r>    -1.6412     0.5148     0.4796 </r>
       <r>    -1.5828     0.4851     0.5079 </r>
       <r>    -1.5244     0.5172     0.5381 </r>
       <r>    -1.4659     0.5972     0.5730 </r>
       <r>    -1.4075     0.6667     0.6120 </r>
       <r>    -1.3491     0.6888     0.6522 </r>
       <r>    -1.2906     0.6859     0.6923 </r>
       <r>    -1.2322     0.6994     0.7332 </r>
       <r>    -1.1738     0.7311     0.7759 </r>
       <r>    -1.1153     0.7521     0.8198 </r>
       <r>    -1.0569     0.7545     0.8639 </r>
       <r>    -0.9985     0.7733     0.9091 </r>
       <r>    -0.9400     0.8507     0.9588 </r>
       <r>    -0.8816     0.9779     1.0160 </r>
       <r>    -0.8232     1.0772     1.0789 </r>
       <r>    -0.7647     1.0789     1.1420 </r>
       <r>    -0.7063     1.0296     1.2021 </r>
       <r>    -0.6479     1.0825     1.2654 </r>
       <r>    -0.5894     1.3469     1.3441 </r>
       <r>    -0.5310     1.7688     1.4474 </r>
       <r>    -0.4726     2.1752     1.5745 </r>
       <r>    -0.4141     2.4238     1.7162 </r>
       <r>    -0.3557     2.5150     1.8631 </r>
       <r>    -0.2973     2.5689     2.0132 </r>
       <r>    -0.2388     2.6971     2.1708 </r>
       <r>    -0.1804     2.9221     2.3416 </r>
       <r>    -0.1220     3.2294     2.5303 </r>
       <r>    -0.0635     3.6261     2.7422 </r>
       <r>    -0.0051     4.0957     2.9815 </r>
       <r>     0.0533     4.5601     3.2480 </r>
       <r>     0.1118     4.9576     3.5376 </r>
       <r>     0.1702     5.3303     3.8491 </r>
       <r>     0.2286     5.7724     4.1864 </r>
       <r>     0.2871     6.2919     4.5541 </r>
       <r>     0.3455     6.7693     4.9496 </r>
       <r>     0.4039     7.0707     5.3628 </r>
       <r>     0.4624     7.1645     5.7814 </r>
       <r>     0.5208     7.1100     6.1969 </r>
       <r>     0.5792     6.9730     6.6043 </r>
       <r>     0.6377     6.7975     7.0015 </r>
       <r>     0.6961     6.6307     7.3890 </r>
       <r>     0.7545     6.5106     7.7694 </r>
       <r>     0.8130     6.4183     8.1445 </r>
       <r>     0.8714     6.2866     8.5118 </r>
       <r>     0.9298     6.0593     8.8659 </r>
       <r>     0.9883     5.7162     9.1999 </r>
       <r>     1.0467     5.2892     9.5090 </r>
       <r>     1.1051     4.9189     9.7964 </r>
       <r>     1.1636     4.8255    10.0784 </r>
       <r>     1.2220     5.1230    10.3777 </r>
       <r>     1.2804     5.6944    10.7105 </r>
       <r>     1.3389     6.3066    11.0790 </r>
       <r>     1.3973     6.8081    11.4768 </r>
       <r>     1.4557     7.1827    11.8965 </r>
       <r>     1.5142     7.4675    12.3329 </r>
       <r>     1.5726     7.6717    12.7811 </r>
       <r>     1.6310     7.7889    13.2363 </r>
       <r>     1.6895     7.8727    13.6963 </r>
       <r>     1.7479     8.0266    14.1653 </r>
       <r>     1.8063     8.2725    14.6487 </r>
       <r>     1.8648     8.4848    15.1445 </r>
       <r>     1.9232     8.5333    15.6431 </r>
       <r>     1.9816     8.4703    16.1381 </r>
       <r>     2.0401     8.5164    16.6357 </r>
       <r>     2.0985     8.8507    17.1529 </r>
       <r>     2.1569     9.4430    17.7047 </r>
       <r>     2.2154    10.1095    18.2954 </r>
       <r>     2.2738    10.7502    18.9236 </r>
       <r>     2.3322    11.4755    19.5941 </r>
       <r>     2.3907    12.3591    20.3163 </r>
       <r>     2.4491    13.0827    21.0808 </r>
       <r>     2.5075    13.0582    21.8438 </r>
       <r>     2.5660    12.0184    22.5461 </r>
       <r>     2.6244    10.3389    23.1502 </r>
       <r>     2.6828     8.6880    23.6579 </r>
       <r>     2.7413     7.4906    24.0956 </r>
       <r>     2.7997     6.7906    24.4924 </r>
       <r>     2.8581     6.4583    24.8698 </r>
       <r>     2.9166     6.3557    25.2412 </r>
       <r>     2.9750     6.3501    25.6122 </r>
       <r>     3.0334     6.3424    25.9828 </r>
       <r>     3.0919     6.3501    26.3539 </r>
       <r>     3.1503     6.4776    26.7324 </r>
       <r>     3.2087     6.7641    27.1277 </r>
       <r>     3.2672     7.1423    27.5450 </r>
       <r>     3.3256     7.5708    27.9874 </r>
       <r>     3.3840     8.0726    28.4591 </r>
       <r>     3.4425     8.5852    28.9608 </r>
       <r>     3.5009     8.9156    29.4817 </r>
       <r>     3.5593     8.9297    30.0035 </r>
       <r>     3.6178     8.6703    30.5102 </r>
       <r>     3.6762     8.2355    30.9914 </r>
       <r>     3.7346     7.6958    31.4411 </r>
       <r>     3.7931     7.1928    31.8614 </r>
       <r>     3.8515     6.9143    32.2654 </r>
       <r>     3.9099     6.8629    32.6664 </r>
       <r>     3.9684     6.8212    33.0650 </r>
       <r>     4.0268     6.6461    33.4534 </r>
       <r>     4.0852     6.4456    33.8300 </r>
       <r>     4.1437     6.3949    34.2037 </r>
       <r>     4.2021     6.5150    34.5844 </r>
       <r>     4.2605     6.6939    34.9755 </r>
       <r>     4.3190     6.8155    35.3738 </r>
       <r>     4.3774     6.8423    35.7736 </r>
       <r>     4.4358     6.8703    36.1750 </r>
       <r>     4.4943     7.1219    36.5912 </r>
       <r>     4.5527     7.8125    37.0477 </r>
       <r>     4.6111     8.9853    37.5727 </r>
       <r>     4.6696    10.4349    38.1825 </r>
       <r>     4.7280    11.7179    38.8672 </r>
       <r>     4.7864    12.2615    39.5837 </r>
       <r>     4.8449    11.6494    40.2644 </r>
       <r>     4.9033     9.9855    40.8479 </r>
       <r>     4.9617     7.9382    41.3117 </r>
       <r>     5.0202     6.2304    41.6758 </r>
       <r>     5.0786     5.0361    41.9701 </r>
       <r>     5.1370     3.9914    42.2033 </r>
       <r>     5.1955     2.7844    42.3660 </r>
       <r>     5.2539     1.5618    42.4573 </r>
       <r>     5.3123     0.7386    42.5004 </r>
       <r>     5.3708     0.5701    42.5337 </r>
       <r>     5.4292     0.9591    42.5898 </r>
       <r>     5.4876     1.5448    42.6801 </r>
       <r>     5.5461     1.9149    42.7919 </r>
       <r>     5.6045     1.8452    42.8998 </r>
       <r>     5.6629     1.4404    42.9839 </r>
       <r>     5.7214     1.0384    43.0446 </r>
       <r>     5.7798     0.9331    43.0991 </r>
       <r>     5.8382     1.1531    43.1665 </r>
       <r>     5.8967     1.4669    43.2522 </r>
       <r>     5.9551     1.5927    43.3453 </r>
       <r>     6.0135     1.4324    43.4290 </r>
       <r>     6.0720     1.1362    43.4954 </r>
       <r>     6.1304     0.9646    43.5518 </r>
       <r>     6.1888     1.0818    43.6150 </r>
       <r>     6.2473     1.4210    43.6980 </r>
       <r>     6.3057     1.7100    43.7979 </r>
       <r>     6.3641     1.6849    43.8964 </r>
       <r>     6.4226     1.3448    43.9750 </r>
       <r>     6.4810     0.9759    44.0320 </r>
       <r>     6.5394     0.8870    44.0838 </r>
       <r>     6.5979     1.1276    44.1497 </r>
       <r>     6.6563     1.4699    44.2356 </r>
       <r>     6.7147     1.6320    44.3310 </r>
       <r>     6.7732     1.5051    44.4189 </r>
       <r>     6.8316     1.2060    44.4894 </r>
       <r>     6.8900     0.9589    44.5454 </r>
       <r>     6.9485     0.9297    44.5997 </r>
       <r>     7.0069     1.1280    44.6657 </r>
       <r>     7.0653     1.4159    44.7484 </r>
       <r>     7.1238     1.6032    44.8421 </r>
       <r>     7.1822     1.5769    44.9342 </r>
       <r>     7.2406     1.3815    45.0149 </r>
       <r>     7.2991     1.1721    45.0834 </r>
       <r>     7.3575     1.0755    45.1463 </r>
       <r>     7.4159     1.1073    45.2110 </r>
       <r>     7.4744     1.2024    45.2812 </r>
       <r>     7.5328     1.2765    45.3558 </r>
       <r>     7.5912     1.2699    45.4300 </r>
       <r>     7.6497     1.1936    45.4998 </r>
       <r>     7.7081     1.1362    45.5662 </r>
       <r>     7.7665     1.1707    45.6346 </r>
       <r>     7.8250     1.2619    45.7083 </r>
       <r>     7.8834     1.3078    45.7847 </r>
       <r>     7.9418     1.2596    45.8583 </r>
       <r>     8.0003     1.1645    45.9264 </r>
       <r>     8.0587     1.1037    45.9909 </r>
       <r>     8.1171     1.1136    46.0560 </r>
       <r>     8.1756     1.1632    46.1239 </r>
       <r>     8.2340     1.2022    46.1942 </r>
       <r>     8.2924     1.2153    46.2652 </r>
       <r>     8.3509     1.2069    46.3357 </r>
       <r>     8.4093     1.1578    46.4034 </r>
       <r>     8.4677     1.0488    46.4646 </r>
       <r>     8.5262     0.9201    46.5184 </r>
       <r>     8.5846     0.8603    46.5687 </r>
       <r>     8.6430     0.9271    46.6229 </r>
       <r>     8.7015     1.0914    46.6866 </r>
       <r>     8.7599     1.2518    46.7598 </r>
       <r>     8.8183     1.3019    46.8359 </r>
       <r>     8.8768     1.2104    46.9066 </r>
       <r>     8.9352     1.0555    46.9683 </r>
       <r>     8.9936     0.9655    47.0247 </r>
       <r>     9.0521     0.9990    47.0830 </r>
       <r>     9.1105     1.0856    47.1465 </r>
       <r>     9.1689     1.1061    47.2111 </r>
       <r>     9.2274     1.0295    47.2713 </r>
       <r>     9.2858     0.9483    47.3267 </r>
       <r>     9.3442     0.9660    47.3831 </r>
       <r>     9.4027     1.0669    47.4455 </r>
       <r>     9.4611     1.1243    47.5112 </r>
       <r>     9.5195     1.0454    47.5723 </r>
       <r>     9.5780     0.8708    47.6231 </r>
       <r>     9.6364     0.7062    47.6644 </r>
       <r>     9.6948     0.6062    47.6998 </r>
       <r>     9.7533     0.5598    47.7325 </r>
       <r>     9.8117     0.5434    47.7643 </r>
       <r>     9.8701     0.5356    47.7956 </r>
       <r>     9.9286     0.5136    47.8256 </r>
       <r>     9.9870     0.4751    47.8534 </r>
       <r>    10.0454     0.4417    47.8792 </r>
       <r>    10.1039     0.4168    47.9035 </r>
       <r>    10.1623     0.3684    47.9250 </r>
       <r>    10.2207     0.2791    47.9413 </r>
       <r>    10.2792     0.1902    47.9525 </r>
       <r>    10.3376     0.1610    47.9619 </r>
       <r>    10.3960     0.1907    47.9730 </r>
       <r>    10.4545     0.2131    47.9855 </r>
       <r>    10.5129     0.1746    47.9957 </r>
       <r>    10.5713     0.0909    48.0010 </r>
       <r>    10.6298     0.0169    48.0020 </r>
       <r>    10.6882    -0.0156    48.0011 </r>
       <r>    10.7466    -0.0155    48.0001 </r>
       <r>    10.8051    -0.0059    47.9998 </r>
       <r>    10.8635     0.0002    47.9998 </r>
       <r>    10.9219     0.0016    47.9999 </r>
       <r>    10.9804     0.0010    48.0000 </r>
       <r>    11.0388     0.0004    48.0000 </r>
       <r>    11.0972     0.0001    48.0000 </r>
       <r>    11.1557     0.0000    48.0000 </r>
       <r>    11.2141     0.0000    48.0000 </r>
       <r>    11.2725     0.0000    48.0000 </r>
       <r>    11.3310     0.0000    48.0000 </r>
       <r>    11.3894     0.0000    48.0000 </r>
       <r>    11.4478     0.0000    48.0000 </r>
       <r>    11.5063     0.0000    48.0000 </r>
       <r>    11.5647     0.0000    48.0000 </r>
       <r>    11.6231     0.0000    48.0000 </r>
       <r>    11.6816     0.0000    48.0000 </r>
       <r>    11.7400     0.0000    48.0000 </r>
       <r>    11.7984     0.0000    48.0000 </r>
       <r>    11.8569     0.0000    48.0000 </r>
       <r>    11.9153     0.0000    48.0000 </r>
       <r>    11.9737     0.0000    48.0000 </r>
       <r>    12.0322     0.0000    48.0000 </r>
       <r>    12.0906     0.0000    48.0000 </r>
       <r>    12.1490     0.0000    48.0000 </r>
       <r>    12.2075     0.0000    48.0000 </r>
       <r>    12.2659     0.0000    48.0000 </r>
       <r>    12.3243     0.0000    48.0000 </r>
       <r>    12.3828     0.0000    48.0000 </r>
       <r>    12.4412     0.0000    48.0000 </r>
      </set>
     </set>
    </array>
   </total>
  </dos>
 </calculation>
 <structure name="finalpos" >
  <crystal>
   <varray name="basis" >
    <v>       4.22000000       0.00000000       0.00000000 </v>
    <v>       0.00000000       4.22000000       0.00000000 </v>
    <v>       0.00000000       0.00000000       4.22000000 </v>
   </varray>
   <i name="volume">     75.15144800 </i>
   <varray name="rec_basis" >
    <v>       0.23696682       0.00000000       0.00000000 </v>
    <v>       0.00000000       0.23696682       0.00000000 </v>
    <v>       0.00000000       0.00000000       0.23696682 </v>
   </varray>
  </crystal>
  <varray name="positions" >
   <v>       0.00000000       0.00000000       0.00000000 </v>
   <v>       0.00000000       0.50000000       0.50000000 </v>
   <v>       0.50000000       0.00000000       0.50000000 </v>
   <v>       0.50000000       0.50000000       0.00000000 </v>
  </varray>
 </structure>
</modeling>
