This job started on
Tue Jan 22 12:57:12 CET 2019
 running on   16 total cores
 distrk:  each k-point on   16 cores,    1 groups
 distr:  one band on    8 cores,    2 groups
 using from now: INCAR     
 vasp.5.4.4.18Apr17-6-g9f103f2a35 (build Apr 17 2018 18:25:23) complex          
  
 POSCAR found :  1 types and       4 ions

 ----------------------------------------------------------------------------- 
|                                                                             |
|  ADVICE TO THIS USER RUNNING 'VASP/VAMP'   (HEAR YOUR MASTER'S VOICE ...):  |
|                                                                             |
|      You enforced a specific xc-type in the INCAR file,                     |
|      a different type was found on the POTCAR file                          |
|          I HOPE YOU KNOW, WHAT YOU ARE  DOING                               |
|                                                                             |
 ----------------------------------------------------------------------------- 

 LDA part: xc-table for Ceperly-Alder, standard interpolation
 POSCAR found :  1 types and       4 ions
 POSCAR, INCAR and KPOINTS ok, starting setup
 FFT: planning ...
 WAVECAR not read
 entering main loop
       N       E                     dE             d eps       ncg     rms          rms(c)
DAV:   1     0.456099448728E+03    0.45610E+03   -0.17384E+04  5800   0.152E+03
DAV:   2     0.376905499876E+01   -0.45233E+03   -0.44024E+03  5776   0.528E+02
DAV:   3    -0.246570058986E+02   -0.28426E+02   -0.27496E+02  7904   0.124E+02
DAV:   4    -0.254562874413E+02   -0.79928E+00   -0.79388E+00  6176   0.262E+01
DAV:   5    -0.254769907032E+02   -0.20703E-01   -0.20697E-01  6968   0.286E+00    0.762E+00
DAV:   6    -0.240846984065E+02    0.13923E+01   -0.29624E+00  6856   0.196E+01    0.243E+00
DAV:   7    -0.239131332290E+02    0.17157E+00   -0.49716E-01  8408   0.729E+00    0.495E-01
DAV:   8    -0.238948174683E+02    0.18316E-01   -0.21022E-02  6040   0.184E+00    0.101E-01
DAV:   9    -0.238945154031E+02    0.30207E-03   -0.18003E-03  7576   0.465E-01    0.230E-02
DAV:  10    -0.238945373551E+02   -0.21952E-04   -0.48777E-05  6440   0.397E-02    0.348E-03
DAV:  11    -0.238945401714E+02   -0.28163E-05   -0.14510E-06  4440   0.119E-02    0.689E-04
DAV:  12    -0.238945400736E+02    0.97774E-07   -0.24183E-07  3176   0.437E-03
   1 F= -.23894540E+02 E0= -.23893348E+02  d E =-.238945E+02
 curvature:   0.00 expect dE= 0.000E+00 dE for cont linesearch  0.000E+00
 trial: gam= 0.00000 g(F)=  0.134E-63 g(S)=  0.000E+00 ort = 0.000E+00 (trialstep = 0.100E+01)
 search vector abs. value=  0.100E-09
 reached required accuracy - stopping structural energy minimisation
 writing wavefunctions
This job finished on
Tue Jan 22 12:57:32 CET 2019
