<?xml version="1.0" encoding="ISO-8859-1"?>
<modeling>
 <generator>
  <i name="program" type="string">vasp </i>
  <i name="version" type="string">5.4.4.18Apr17-6-g9f103f2a35  </i>
  <i name="subversion" type="string">(build Apr 17 2018 18:25:23) complex            parallel </i>
  <i name="platform" type="string">LinuxIFC </i>
  <i name="date" type="string">2019 01 22 </i>
  <i name="time" type="string">12:57:13 </i>
 </generator>
 <incar>
  <i type="string" name="SYSTEM"> Pt bulk calculation</i>
  <i type="int" name="ISTART">     0</i>
  <i type="string" name="PREC">normal</i>
  <i type="string" name="ALGO"> NORMAL</i>
  <i type="int" name="ICHARG">     2</i>
  <i type="int" name="INIWAV">     1</i>
  <i type="int" name="NELMIN">    10</i>
  <i type="int" name="IBRION">     2</i>
  <i name="EDIFF">      0.00000100</i>
  <i name="EDIFFG">     -0.02000000</i>
  <i type="int" name="NSW">    10</i>
  <i name="ENCUT">    450.00000000</i>
  <i name="POTIM">      0.20000000</i>
  <i type="int" name="ISMEAR">     2</i>
  <i name="SIGMA">      0.20000000</i>
  <v type="int" name="KPOINT_BSE">    -1     0     0     0</v>
  <i type="string" name="GGA"> 91</i>
 </incar>
 <structure name="primitive_cell" >
  <crystal>
   <varray name="basis" >
    <v>       1.93000000       1.93000000      -0.00000000 </v>
    <v>       1.93000000       0.00000000      -1.93000000 </v>
    <v>       0.00000000       1.93000000      -1.93000000 </v>
   </varray>
   <i name="volume">     14.37811400 </i>
   <varray name="rec_basis" >
    <v>       0.25906736       0.25906736       0.25906736 </v>
    <v>       0.25906736      -0.25906736      -0.25906736 </v>
    <v>      -0.25906736       0.25906736      -0.25906736 </v>
   </varray>
  </crystal>
  <varray name="positions" >
   <v>       0.00000000       0.00000000       0.00000000 </v>
  </varray>
 </structure>
 <varray name="primitive_index" >
  <v type="int" >        1 </v>
 </varray>
 <kpoints>
  <generation param="Monkhorst-Pack">
   <v type="int" name="divisions">      16       16       16 </v>
   <v name="usershift">      0.00000000       0.00000000       0.00000000 </v>
   <v name="genvec1">      0.06250000       0.00000000       0.00000000 </v>
   <v name="genvec2">      0.00000000       0.06250000       0.00000000 </v>
   <v name="genvec3">      0.00000000       0.00000000       0.06250000 </v>
   <v name="shift">      0.50000000       0.50000000       0.50000000 </v>
  </generation>
  <varray name="kpointlist" >
   <v>       0.03125000       0.03125000       0.03125000 </v>
   <v>       0.09375000       0.03125000       0.03125000 </v>
   <v>       0.15625000       0.03125000       0.03125000 </v>
   <v>       0.21875000       0.03125000       0.03125000 </v>
   <v>       0.28125000       0.03125000       0.03125000 </v>
   <v>       0.34375000       0.03125000       0.03125000 </v>
   <v>       0.40625000       0.03125000       0.03125000 </v>
   <v>       0.46875000       0.03125000       0.03125000 </v>
   <v>       0.09375000       0.09375000       0.03125000 </v>
   <v>       0.15625000       0.09375000       0.03125000 </v>
   <v>       0.21875000       0.09375000       0.03125000 </v>
   <v>       0.28125000       0.09375000       0.03125000 </v>
   <v>       0.34375000       0.09375000       0.03125000 </v>
   <v>       0.40625000       0.09375000       0.03125000 </v>
   <v>       0.46875000       0.09375000       0.03125000 </v>
   <v>       0.15625000       0.15625000       0.03125000 </v>
   <v>       0.21875000       0.15625000       0.03125000 </v>
   <v>       0.28125000       0.15625000       0.03125000 </v>
   <v>       0.34375000       0.15625000       0.03125000 </v>
   <v>       0.40625000       0.15625000       0.03125000 </v>
   <v>       0.46875000       0.15625000       0.03125000 </v>
   <v>       0.21875000       0.21875000       0.03125000 </v>
   <v>       0.28125000       0.21875000       0.03125000 </v>
   <v>       0.34375000       0.21875000       0.03125000 </v>
   <v>       0.40625000       0.21875000       0.03125000 </v>
   <v>       0.46875000       0.21875000       0.03125000 </v>
   <v>       0.28125000       0.28125000       0.03125000 </v>
   <v>       0.34375000       0.28125000       0.03125000 </v>
   <v>       0.40625000       0.28125000       0.03125000 </v>
   <v>       0.46875000       0.28125000       0.03125000 </v>
   <v>       0.34375000       0.34375000       0.03125000 </v>
   <v>       0.40625000       0.34375000       0.03125000 </v>
   <v>       0.46875000       0.34375000       0.03125000 </v>
   <v>       0.40625000       0.40625000       0.03125000 </v>
   <v>       0.46875000       0.40625000       0.03125000 </v>
   <v>       0.46875000       0.46875000       0.03125000 </v>
   <v>       0.09375000       0.09375000       0.09375000 </v>
   <v>       0.15625000       0.09375000       0.09375000 </v>
   <v>       0.21875000       0.09375000       0.09375000 </v>
   <v>       0.28125000       0.09375000       0.09375000 </v>
   <v>       0.34375000       0.09375000       0.09375000 </v>
   <v>       0.40625000       0.09375000       0.09375000 </v>
   <v>       0.46875000       0.09375000       0.09375000 </v>
   <v>       0.15625000       0.15625000       0.09375000 </v>
   <v>       0.21875000       0.15625000       0.09375000 </v>
   <v>       0.28125000       0.15625000       0.09375000 </v>
   <v>       0.34375000       0.15625000       0.09375000 </v>
   <v>       0.40625000       0.15625000       0.09375000 </v>
   <v>       0.46875000       0.15625000       0.09375000 </v>
   <v>       0.21875000       0.21875000       0.09375000 </v>
   <v>       0.28125000       0.21875000       0.09375000 </v>
   <v>       0.34375000       0.21875000       0.09375000 </v>
   <v>       0.40625000       0.21875000       0.09375000 </v>
   <v>       0.46875000       0.21875000       0.09375000 </v>
   <v>       0.28125000       0.28125000       0.09375000 </v>
   <v>       0.34375000       0.28125000       0.09375000 </v>
   <v>       0.40625000       0.28125000       0.09375000 </v>
   <v>       0.46875000       0.28125000       0.09375000 </v>
   <v>       0.34375000       0.34375000       0.09375000 </v>
   <v>       0.40625000       0.34375000       0.09375000 </v>
   <v>       0.46875000       0.34375000       0.09375000 </v>
   <v>       0.40625000       0.40625000       0.09375000 </v>
   <v>       0.46875000       0.40625000       0.09375000 </v>
   <v>       0.46875000       0.46875000       0.09375000 </v>
   <v>       0.15625000       0.15625000       0.15625000 </v>
   <v>       0.21875000       0.15625000       0.15625000 </v>
   <v>       0.28125000       0.15625000       0.15625000 </v>
   <v>       0.34375000       0.15625000       0.15625000 </v>
   <v>       0.40625000       0.15625000       0.15625000 </v>
   <v>       0.46875000       0.15625000       0.15625000 </v>
   <v>       0.21875000       0.21875000       0.15625000 </v>
   <v>       0.28125000       0.21875000       0.15625000 </v>
   <v>       0.34375000       0.21875000       0.15625000 </v>
   <v>       0.40625000       0.21875000       0.15625000 </v>
   <v>       0.46875000       0.21875000       0.15625000 </v>
   <v>       0.28125000       0.28125000       0.15625000 </v>
   <v>       0.34375000       0.28125000       0.15625000 </v>
   <v>       0.40625000       0.28125000       0.15625000 </v>
   <v>       0.46875000       0.28125000       0.15625000 </v>
   <v>       0.34375000       0.34375000       0.15625000 </v>
   <v>       0.40625000       0.34375000       0.15625000 </v>
   <v>       0.46875000       0.34375000       0.15625000 </v>
   <v>       0.40625000       0.40625000       0.15625000 </v>
   <v>       0.46875000       0.40625000       0.15625000 </v>
   <v>       0.46875000       0.46875000       0.15625000 </v>
   <v>       0.21875000       0.21875000       0.21875000 </v>
   <v>       0.28125000       0.21875000       0.21875000 </v>
   <v>       0.34375000       0.21875000       0.21875000 </v>
   <v>       0.40625000       0.21875000       0.21875000 </v>
   <v>       0.46875000       0.21875000       0.21875000 </v>
   <v>       0.28125000       0.28125000       0.21875000 </v>
   <v>       0.34375000       0.28125000       0.21875000 </v>
   <v>       0.40625000       0.28125000       0.21875000 </v>
   <v>       0.46875000       0.28125000       0.21875000 </v>
   <v>       0.34375000       0.34375000       0.21875000 </v>
   <v>       0.40625000       0.34375000       0.21875000 </v>
   <v>       0.46875000       0.34375000       0.21875000 </v>
   <v>       0.40625000       0.40625000       0.21875000 </v>
   <v>       0.46875000       0.40625000       0.21875000 </v>
   <v>       0.46875000       0.46875000       0.21875000 </v>
   <v>       0.28125000       0.28125000       0.28125000 </v>
   <v>       0.34375000       0.28125000       0.28125000 </v>
   <v>       0.40625000       0.28125000       0.28125000 </v>
   <v>       0.46875000       0.28125000       0.28125000 </v>
   <v>       0.34375000       0.34375000       0.28125000 </v>
   <v>       0.40625000       0.34375000       0.28125000 </v>
   <v>       0.46875000       0.34375000       0.28125000 </v>
   <v>       0.40625000       0.40625000       0.28125000 </v>
   <v>       0.46875000       0.40625000       0.28125000 </v>
   <v>       0.46875000       0.46875000       0.28125000 </v>
   <v>       0.34375000       0.34375000       0.34375000 </v>
   <v>       0.40625000       0.34375000       0.34375000 </v>
   <v>       0.46875000       0.34375000       0.34375000 </v>
   <v>       0.40625000       0.40625000       0.34375000 </v>
   <v>       0.46875000       0.40625000       0.34375000 </v>
   <v>       0.46875000       0.46875000       0.34375000 </v>
   <v>       0.40625000       0.40625000       0.40625000 </v>
   <v>       0.46875000       0.40625000       0.40625000 </v>
   <v>       0.46875000       0.46875000       0.40625000 </v>
   <v>       0.46875000       0.46875000       0.46875000 </v>
  </varray>
  <varray name="weights" >
   <v>       0.00195312 </v>
   <v>       0.00585938 </v>
   <v>       0.00585938 </v>
   <v>       0.00585938 </v>
   <v>       0.00585938 </v>
   <v>       0.00585938 </v>
   <v>       0.00585938 </v>
   <v>       0.00585938 </v>
   <v>       0.00585938 </v>
   <v>       0.01171875 </v>
   <v>       0.01171875 </v>
   <v>       0.01171875 </v>
   <v>       0.01171875 </v>
   <v>       0.01171875 </v>
   <v>       0.01171875 </v>
   <v>       0.00585938 </v>
   <v>       0.01171875 </v>
   <v>       0.01171875 </v>
   <v>       0.01171875 </v>
   <v>       0.01171875 </v>
   <v>       0.01171875 </v>
   <v>       0.00585938 </v>
   <v>       0.01171875 </v>
   <v>       0.01171875 </v>
   <v>       0.01171875 </v>
   <v>       0.01171875 </v>
   <v>       0.00585938 </v>
   <v>       0.01171875 </v>
   <v>       0.01171875 </v>
   <v>       0.01171875 </v>
   <v>       0.00585938 </v>
   <v>       0.01171875 </v>
   <v>       0.01171875 </v>
   <v>       0.00585938 </v>
   <v>       0.01171875 </v>
   <v>       0.00585938 </v>
   <v>       0.00195312 </v>
   <v>       0.00585938 </v>
   <v>       0.00585938 </v>
   <v>       0.00585938 </v>
   <v>       0.00585938 </v>
   <v>       0.00585938 </v>
   <v>       0.00585938 </v>
   <v>       0.00585938 </v>
   <v>       0.01171875 </v>
   <v>       0.01171875 </v>
   <v>       0.01171875 </v>
   <v>       0.01171875 </v>
   <v>       0.01171875 </v>
   <v>       0.00585938 </v>
   <v>       0.01171875 </v>
   <v>       0.01171875 </v>
   <v>       0.01171875 </v>
   <v>       0.01171875 </v>
   <v>       0.00585938 </v>
   <v>       0.01171875 </v>
   <v>       0.01171875 </v>
   <v>       0.01171875 </v>
   <v>       0.00585938 </v>
   <v>       0.01171875 </v>
   <v>       0.01171875 </v>
   <v>       0.00585938 </v>
   <v>       0.01171875 </v>
   <v>       0.00585938 </v>
   <v>       0.00195312 </v>
   <v>       0.00585938 </v>
   <v>       0.00585938 </v>
   <v>       0.00585938 </v>
   <v>       0.00585938 </v>
   <v>       0.00585938 </v>
   <v>       0.00585938 </v>
   <v>       0.01171875 </v>
   <v>       0.01171875 </v>
   <v>       0.01171875 </v>
   <v>       0.01171875 </v>
   <v>       0.00585938 </v>
   <v>       0.01171875 </v>
   <v>       0.01171875 </v>
   <v>       0.01171875 </v>
   <v>       0.00585938 </v>
   <v>       0.01171875 </v>
   <v>       0.01171875 </v>
   <v>       0.00585938 </v>
   <v>       0.01171875 </v>
   <v>       0.00585938 </v>
   <v>       0.00195312 </v>
   <v>       0.00585938 </v>
   <v>       0.00585938 </v>
   <v>       0.00585938 </v>
   <v>       0.00585938 </v>
   <v>       0.00585938 </v>
   <v>       0.01171875 </v>
   <v>       0.01171875 </v>
   <v>       0.01171875 </v>
   <v>       0.00585938 </v>
   <v>       0.01171875 </v>
   <v>       0.01171875 </v>
   <v>       0.00585938 </v>
   <v>       0.01171875 </v>
   <v>       0.00585938 </v>
   <v>       0.00195312 </v>
   <v>       0.00585938 </v>
   <v>       0.00585938 </v>
   <v>       0.00585938 </v>
   <v>       0.00585938 </v>
   <v>       0.01171875 </v>
   <v>       0.01171875 </v>
   <v>       0.00585938 </v>
   <v>       0.01171875 </v>
   <v>       0.00585938 </v>
   <v>       0.00195312 </v>
   <v>       0.00585938 </v>
   <v>       0.00585938 </v>
   <v>       0.00585938 </v>
   <v>       0.01171875 </v>
   <v>       0.00585938 </v>
   <v>       0.00195312 </v>
   <v>       0.00585938 </v>
   <v>       0.00585938 </v>
   <v>       0.00195312 </v>
  </varray>
 </kpoints>
 <parameters>
  <separator name="general" >
   <i type="string" name="SYSTEM">Pt bulk calculation</i>
   <i type="logical" name="LCOMPAT"> F  </i>
  </separator>
  <separator name="electronic" >
   <i type="string" name="PREC">normal</i>
   <i name="ENMAX">    450.00000000</i>
   <i name="ENAUG">    358.96600000</i>
   <i name="EDIFF">      0.00000100</i>
   <i type="int" name="IALGO">    38</i>
   <i type="int" name="IWAVPR">    11</i>
   <i type="int" name="NBANDS">    24</i>
   <i name="NELECT">     40.00000000</i>
   <i type="int" name="TURBO">     0</i>
   <i type="int" name="IRESTART">     0</i>
   <i type="int" name="NREBOOT">     0</i>
   <i type="int" name="NMIN">     0</i>
   <i name="EREF">      0.00000000</i>
   <separator name="electronic smearing" >
    <i type="int" name="ISMEAR">     2</i>
    <i name="SIGMA">      0.20000000</i>
    <i name="KSPACING">      0.50000000</i>
    <i type="logical" name="KGAMMA"> T  </i>
   </separator>
   <separator name="electronic projectors" >
    <i type="logical" name="LREAL"> F  </i>
    <v name="ROPT">      0.00000000</v>
    <i type="int" name="LMAXPAW">  -100</i>
    <i type="int" name="LMAXMIX">     2</i>
    <i type="logical" name="NLSPLINE"> F  </i>
   </separator>
   <separator name="electronic startup" >
    <i type="int" name="ISTART">     0</i>
    <i type="int" name="ICHARG">     2</i>
    <i type="int" name="INIWAV">     1</i>
   </separator>
   <separator name="electronic spin" >
    <i type="int" name="ISPIN">     1</i>
    <i type="logical" name="LNONCOLLINEAR"> F  </i>
    <v name="MAGMOM">      1.00000000      1.00000000      1.00000000      1.00000000</v>
    <i name="NUPDOWN">     -1.00000000</i>
    <i type="logical" name="LSORBIT"> F  </i>
    <v name="SAXIS">      0.00000000      0.00000000      1.00000000</v>
    <i type="logical" name="LSPIRAL"> F  </i>
    <v name="QSPIRAL">      0.00000000      0.00000000      0.00000000</v>
    <i type="logical" name="LZEROZ"> F  </i>
   </separator>
   <separator name="electronic exchange-correlation" >
    <i type="logical" name="LASPH"> F  </i>
    <i type="logical" name="LMETAGGA"> F  </i>
   </separator>
   <separator name="electronic convergence" >
    <i type="int" name="NELM">    60</i>
    <i type="int" name="NELMDL">    -5</i>
    <i type="int" name="NELMIN">    10</i>
    <i name="ENINI">    450.00000000</i>
    <separator name="electronic convergence detail" >
     <i type="logical" name="LDIAG"> T  </i>
     <i type="logical" name="LSUBROT"> F  </i>
     <i name="WEIMIN">      0.00100000</i>
     <i name="EBREAK">      0.00000001</i>
     <i name="DEPER">      0.30000000</i>
     <i type="int" name="NRMM">     4</i>
     <i name="TIME">      0.40000000</i>
    </separator>
   </separator>
   <separator name="electronic mixer" >
    <i name="AMIX">      0.40000000</i>
    <i name="BMIX">      1.00000000</i>
    <i name="AMIN">      0.10000000</i>
    <i name="AMIX_MAG">      1.60000000</i>
    <i name="BMIX_MAG">      1.00000000</i>
    <separator name="electronic mixer details" >
     <i type="int" name="IMIX">     4</i>
     <i type="logical" name="MIXFIRST"> F  </i>
     <i type="int" name="MAXMIX">   -45</i>
     <i name="WC">    100.00000000</i>
     <i type="int" name="INIMIX">     1</i>
     <i type="int" name="MIXPRE">     1</i>
     <i type="int" name="MREMOVE">     5</i>
    </separator>
   </separator>
   <separator name="electronic dipolcorrection" >
    <i type="logical" name="LDIPOL"> F  </i>
    <i type="logical" name="LMONO"> F  </i>
    <i type="int" name="IDIPOL">     0</i>
    <i name="EPSILON">      1.00000000</i>
    <v name="DIPOL">   -100.00000000   -100.00000000   -100.00000000</v>
    <i name="EFIELD">      0.00000000</i>
   </separator>
  </separator>
  <separator name="grids" >
   <i type="int" name="NGX">    20</i>
   <i type="int" name="NGY">    20</i>
   <i type="int" name="NGZ">    20</i>
   <i type="int" name="NGXF">    40</i>
   <i type="int" name="NGYF">    40</i>
   <i type="int" name="NGZF">    40</i>
   <i type="logical" name="ADDGRID"> F  </i>
  </separator>
  <separator name="ionic" >
   <i type="int" name="NSW">    10</i>
   <i type="int" name="IBRION">     2</i>
   <i type="int" name="MDALGO">     0</i>
   <i type="int" name="ISIF">     2</i>
   <i name="PSTRESS">      0.00000000</i>
   <i name="EDIFFG">     -0.02000000</i>
   <i type="int" name="NFREE">     1</i>
   <i name="POTIM">      0.20000000</i>
   <i name="SMASS">     -3.00000000</i>
   <i name="SCALEE">      1.00000000</i>
  </separator>
  <separator name="ionic md" >
   <i name="TEBEG">      0.00010000</i>
   <i name="TEEND">      0.00010000</i>
   <i type="int" name="NBLOCK">     1</i>
   <i type="int" name="KBLOCK">    10</i>
   <i type="int" name="NPACO">   256</i>
   <i name="APACO">     16.00000000</i>
  </separator>
  <separator name="symmetry" >
   <i type="int" name="ISYM">     2</i>
   <i name="SYMPREC">      0.00001000</i>
  </separator>
  <separator name="dos" >
   <i type="int" name="LORBIT">     0</i>
   <v name="RWIGS">     -1.00000000</v>
   <i type="int" name="NEDOS">   301</i>
   <i name="EMIN">     10.00000000</i>
   <i name="EMAX">    -10.00000000</i>
   <i name="EFERMI">      0.00000000</i>
  </separator>
  <separator name="writing" >
   <i type="int" name="NWRITE">     2</i>
   <i type="logical" name="LWAVE"> T  </i>
   <i type="logical" name="LDOWNSAMPLE"> F  </i>
   <i type="logical" name="LCHARG"> T  </i>
   <i type="logical" name="LPARD"> F  </i>
   <i type="logical" name="LVTOT"> F  </i>
   <i type="logical" name="LVHAR"> F  </i>
   <i type="logical" name="LELF"> F  </i>
   <i type="logical" name="LOPTICS"> F  </i>
   <v name="STM">      0.00000000      0.00000000      0.00000000      0.00000000      0.00000000      0.00000000      0.00000000</v>
  </separator>
  <separator name="performance" >
   <i type="int" name="NPAR">     2</i>
   <i type="int" name="NSIM">     4</i>
   <i type="int" name="NBLK">    -1</i>
   <i type="logical" name="LPLANE"> T  </i>
   <i type="logical" name="LSCALAPACK"> F  </i>
   <i type="logical" name="LSCAAWARE"> F  </i>
   <i type="logical" name="LSCALU"> F  </i>
   <i type="logical" name="LASYNC"> F  </i>
   <i type="logical" name="LORBITALREAL"> F  </i>
  </separator>
  <separator name="miscellaneous" >
   <i type="int" name="IDIOT">     3</i>
   <i type="int" name="ISPECIAL">     0</i>
   <i type="logical" name="LMUSIC"> F  </i>
   <v name="POMASS">    195.08000000</v>
   <v name="DARWINR">      0.00000000</v>
   <v name="DARWINV">      1.00000000</v>
   <i type="logical" name="LCORR"> T  </i>
  </separator>
  <i type="logical" name="GGA_COMPAT"> T  </i>
  <i type="logical" name="LBERRY"> F  </i>
  <i type="int" name="ICORELEVEL">     0</i>
  <i type="logical" name="LDAU"> F  </i>
  <i type="int" name="I_CONSTRAINED_M">     0</i>
  <separator name="electronic exchange-correlation" >
   <i type="string" name="GGA">91</i>
   <i type="int" name="VOSKOWN">     0</i>
   <i type="logical" name="LHFCALC"> F  </i>
   <i type="string" name="PRECFOCK"></i>
   <i type="logical" name="LSYMGRAD"> F  </i>
   <i type="logical" name="LHFONE"> F  </i>
   <i type="logical" name="LRHFCALC"> F  </i>
   <i type="logical" name="LTHOMAS"> F  </i>
   <i type="logical" name="LMODELHF"> F  </i>
   <i name="ENCUT4O">     -1.00000000</i>
   <i type="int" name="EXXOEP">     0</i>
   <i type="int" name="FOURORBIT">     0</i>
   <i name="AEXX">      0.00000000</i>
   <i name="HFALPHA">      0.00000000</i>
   <i name="MCALPHA">      0.00000000</i>
   <i name="ALDAX">      1.00000000</i>
   <i name="AGGAX">      1.00000000</i>
   <i name="ALDAC">      1.00000000</i>
   <i name="AGGAC">      1.00000000</i>
   <i type="int" name="NKREDX">     1</i>
   <i type="int" name="NKREDY">     1</i>
   <i type="int" name="NKREDZ">     1</i>
   <i type="logical" name="SHIFTRED"> F  </i>
   <i type="logical" name="ODDONLY"> F  </i>
   <i type="logical" name="EVENONLY"> F  </i>
   <i type="int" name="LMAXFOCK">     0</i>
   <i type="int" name="NMAXFOCKAE">     0</i>
   <i type="logical" name="LFOCKAEDFT"> F  </i>
   <i name="HFSCREEN">      0.00000000</i>
   <i name="HFSCREENC">      0.00000000</i>
   <i type="int" name="NBANDSGWLOW">     0</i>
  </separator>
  <separator name="vdW DFT" >
   <i type="logical" name="LUSE_VDW"> F  </i>
   <i name="Zab_VDW">     -0.84910000</i>
   <i name="PARAM1">      0.12340000</i>
   <i name="PARAM2">      1.00000000</i>
   <i name="PARAM3">      0.00000000</i>
  </separator>
  <separator name="model GW" >
   <i type="int" name="MODEL_GW">     0</i>
   <i name="MODEL_EPS0">      8.62686840</i>
   <i name="MODEL_ALPHA">      1.00000000</i>
  </separator>
  <separator name="linear response parameters" >
   <i type="logical" name="LEPSILON"> F  </i>
   <i type="logical" name="LRPA"> F  </i>
   <i type="logical" name="LNABLA"> F  </i>
   <i type="logical" name="LVEL"> F  </i>
   <i type="int" name="KINTER">     0</i>
   <i name="CSHIFT">      0.10000000</i>
   <i name="OMEGAMAX">     -1.00000000</i>
   <i name="DEG_THRESHOLD">      0.00200000</i>
   <i name="RTIME">     -0.10000000</i>
   <i name="WPLASMAI">      0.00000000</i>
   <v name="DFIELD">      0.00000000      0.00000000      0.00000000</v>
   <v name="WPLASMA">      0.00000000      0.00000000      0.00000000      0.00000000      0.00000000      0.00000000      0.00000000      0.00000000      0.00000000</v>
  </separator>
  <separator name="orbital magnetization" >
   <i type="logical" name="NUCIND"> F  </i>
   <v name="MAGPOS">      0.00000000      0.00000000      0.00000000</v>
   <i type="logical" name="LNICSALL"> T  </i>
   <i type="logical" name="ORBITALMAG"> F  </i>
   <i type="logical" name="LMAGBLOCH"> F  </i>
   <i type="logical" name="LCHIMAG"> F  </i>
   <i type="logical" name="LGAUGE"> T  </i>
   <i type="int" name="MAGATOM">     0</i>
   <v name="MAGDIPOL">      0.00000000      0.00000000      0.00000000</v>
   <v name="AVECCONST">      0.00000000      0.00000000      0.00000000</v>
  </separator>
  <separator name="response functions" >
   <i type="logical" name="LADDER"> F  </i>
   <i type="logical" name="LRPAFORCE"> F  </i>
   <i type="logical" name="LFXC"> F  </i>
   <i type="logical" name="LHARTREE"> T  </i>
   <i type="int" name="IBSE">     0</i>
   <v type="int" name="KPOINT">    -1     0     0     0</v>
   <i type="logical" name="LTCTE"> F  </i>
   <i type="logical" name="LTETE"> F  </i>
   <i type="logical" name="LTRIPLET"> F  </i>
   <i type="logical" name="LFXCEPS"> F  </i>
   <i type="logical" name="LFXHEG"> F  </i>
   <i type="int" name="NATURALO">     2</i>
   <i type="logical" name="L2ORDER"> F  </i>
   <i type="logical" name="LMP2LT"> F  </i>
   <i type="logical" name="LUSEW"> F  </i>
   <i name="ENCUTGW">     -2.00000000</i>
   <i name="ENCUTGWSOFT">     -2.00000000</i>
   <i name="ENCUTLF">     -1.00000000</i>
   <i type="int" name="LMAXMP2">    -1</i>
   <i name="SCISSOR">      0.00000000</i>
   <i type="int" name="NOMEGA">     0</i>
   <i type="int" name="NOMEGAR">     0</i>
   <i type="int" name="NBANDSGW">    -1</i>
   <i type="int" name="NBANDSO">    -1</i>
   <i type="int" name="NBANDSV">    -1</i>
   <i type="int" name="NELM">     1</i>
   <i type="int" name="NELMHF">     1</i>
   <i type="int" name="DIM">     3</i>
   <i type="int" name="ANTIRES">     0</i>
   <i name="OMEGAMAX">    -30.00000000</i>
   <i name="OMEGAMIN">    -30.00000000</i>
   <i name="OMEGATL">   -200.00000000</i>
   <i type="int" name="OMEGAGRID">   140</i>
   <i name="CSHIFT">     -0.10000000</i>
   <i type="logical" name="SELFENERGY"> F  </i>
   <i type="logical" name="LSPECTRAL"> F  </i>
   <i type="logical" name="LSPECTRALGW"> F  </i>
   <i type="logical" name="LSINGLES"> F  </i>
   <i type="logical" name="LFERMIGW"> F  </i>
   <i type="logical" name="ODDONLYGW"> F  </i>
   <i type="logical" name="EVENONLYGW"> F  </i>
   <i type="int" name="NKREDLFX">     1</i>
   <i type="int" name="NKREDLFY">     1</i>
   <i type="int" name="NKREDLFZ">     1</i>
   <i type="int" name="MAXMEM">  2800</i>
   <i type="int" name="TELESCOPE">     0</i>
   <i type="int" name="TAUPAR">     1</i>
   <i type="int" name="OMEGAPAR">    -1</i>
   <i name="LAMBDA">      1.00000000</i>
  </separator>
  <separator name="External order field" >
   <i name="OFIELD_KAPPA">      0.00000000</i>
   <v name="OFIELD_K">      0.00000000      0.00000000      0.00000000</v>
   <i name="OFIELD_Q6_NEAR">      0.00000000</i>
   <i name="OFIELD_Q6_FAR">      0.00000000</i>
   <i name="OFIELD_A">      0.00000000</i>
  </separator>
 </parameters>
 <atominfo>
  <atoms>       4 </atoms>
  <types>       1 </types>
  <array name="atoms" >
   <dimension dim="1">ion</dimension>
   <field type="string">element</field>
   <field type="int">atomtype</field>
   <set>
    <rc><c>Pt</c><c>   1</c></rc>
    <rc><c>Pt</c><c>   1</c></rc>
    <rc><c>Pt</c><c>   1</c></rc>
    <rc><c>Pt</c><c>   1</c></rc>
   </set>
  </array>
  <array name="atomtypes" >
   <dimension dim="1">type</dimension>
   <field type="int">atomspertype</field>
   <field type="string">element</field>
   <field>mass</field>
   <field>valence</field>
   <field type="string">pseudopotential</field>
   <set>
    <rc><c>   4</c><c>Pt</c><c>    195.08000000</c><c>     10.00000000</c><c> PAW_PBE Pt 05Jan2001                   </c></rc>
   </set>
  </array>
 </atominfo>
 <structure name="initialpos" >
  <crystal>
   <varray name="basis" >
    <v>       3.86000000       0.00000000       0.00000000 </v>
    <v>       0.00000000       3.86000000       0.00000000 </v>
    <v>       0.00000000       0.00000000       3.86000000 </v>
   </varray>
   <i name="volume">     57.51245600 </i>
   <varray name="rec_basis" >
    <v>       0.25906736       0.00000000       0.00000000 </v>
    <v>       0.00000000       0.25906736       0.00000000 </v>
    <v>       0.00000000       0.00000000       0.25906736 </v>
   </varray>
  </crystal>
  <varray name="positions" >
   <v>       0.00000000       0.00000000       0.00000000 </v>
   <v>       0.00000000       0.50000000       0.50000000 </v>
   <v>       0.50000000       0.00000000       0.50000000 </v>
   <v>       0.50000000       0.50000000       0.00000000 </v>
  </varray>
 </structure>
 <calculation>
  <scstep>
   <time name="dav">    0.97    0.97</time>
   <time name="total">    0.99    1.11</time>
   <energy>
    <i name="alphaZ">    404.76874783 </i>
    <i name="ewald">  -3420.77921021 </i>
    <i name="hartreedc">   -269.56971511 </i>
    <i name="XCdc">     15.03000749 </i>
    <i name="pawpsdc">   2293.79710215 </i>
    <i name="pawaedc">  -2181.03440391 </i>
    <i name="eentropy">      0.00073184 </i>
    <i name="bandstr">    698.34803816 </i>
    <i name="atom">   2915.53815049 </i>
    <i name="e_fr_energy">    456.09944873 </i>
    <i name="e_wo_entrp">    456.09871689 </i>
    <i name="e_0_energy">    456.09926577 </i>
   </energy>
  </scstep>
  <scstep>
   <time name="dav">    0.95    0.96</time>
   <time name="total">    0.96    0.96</time>
   <energy>
    <i name="e_fr_energy">      3.76905500 </i>
    <i name="e_wo_entrp">      3.77219142 </i>
    <i name="e_0_energy">      3.76983910 </i>
   </energy>
  </scstep>
  <scstep>
   <time name="dav">    1.25    1.25</time>
   <time name="total">    1.26    1.26</time>
   <energy>
    <i name="e_fr_energy">    -24.65700590 </i>
    <i name="e_wo_entrp">    -24.65767625 </i>
    <i name="e_0_energy">    -24.65717349 </i>
   </energy>
  </scstep>
  <scstep>
   <time name="dav">    1.01    1.01</time>
   <time name="total">    1.02    1.02</time>
   <energy>
    <i name="e_fr_energy">    -25.45628744 </i>
    <i name="e_wo_entrp">    -25.45678645 </i>
    <i name="e_0_energy">    -25.45641219 </i>
   </energy>
  </scstep>
  <scstep>
   <time name="dav">    1.13    1.13</time>
   <time name="total">    1.19    1.19</time>
   <energy>
    <i name="e_fr_energy">    -25.47699070 </i>
    <i name="e_wo_entrp">    -25.47750682 </i>
    <i name="e_0_energy">    -25.47711973 </i>
   </energy>
  </scstep>
  <scstep>
   <time name="dav">    1.09    1.09</time>
   <time name="total">    1.17    1.17</time>
   <energy>
    <i name="e_fr_energy">    -24.08469841 </i>
    <i name="e_wo_entrp">    -24.08043711 </i>
    <i name="e_0_energy">    -24.08363308 </i>
   </energy>
  </scstep>
  <scstep>
   <time name="dav">    1.31    1.31</time>
   <time name="total">    1.38    1.38</time>
   <energy>
    <i name="e_fr_energy">    -23.91313323 </i>
    <i name="e_wo_entrp">    -23.90825491 </i>
    <i name="e_0_energy">    -23.91191365 </i>
   </energy>
  </scstep>
  <scstep>
   <time name="dav">    0.98    0.98</time>
   <time name="total">    1.06    1.06</time>
   <energy>
    <i name="e_fr_energy">    -23.89481747 </i>
    <i name="e_wo_entrp">    -23.89006476 </i>
    <i name="e_0_energy">    -23.89362929 </i>
   </energy>
  </scstep>
  <scstep>
   <time name="dav">    1.18    1.18</time>
   <time name="total">    1.25    1.25</time>
   <energy>
    <i name="e_fr_energy">    -23.89451540 </i>
    <i name="e_wo_entrp">    -23.88973539 </i>
    <i name="e_0_energy">    -23.89332040 </i>
   </energy>
  </scstep>
  <scstep>
   <time name="dav">    1.03    1.03</time>
   <time name="total">    1.10    1.10</time>
   <energy>
    <i name="e_fr_energy">    -23.89453736 </i>
    <i name="e_wo_entrp">    -23.88976799 </i>
    <i name="e_0_energy">    -23.89334501 </i>
   </energy>
  </scstep>
  <scstep>
   <time name="dav">    0.80    0.80</time>
   <time name="total">    0.87    0.87</time>
   <energy>
    <i name="e_fr_energy">    -23.89454017 </i>
    <i name="e_wo_entrp">    -23.88977097 </i>
    <i name="e_0_energy">    -23.89334787 </i>
   </energy>
  </scstep>
  <scstep>
   <time name="dav">    0.64    0.64</time>
   <time name="total">    0.66    0.66</time>
   <energy>
    <i name="alphaZ">    404.76874783 </i>
    <i name="ewald">  -3420.77921021 </i>
    <i name="hartreedc">   -230.27294868 </i>
    <i name="XCdc">     13.54752266 </i>
    <i name="pawpsdc">   2458.66607751 </i>
    <i name="pawaedc">  -2357.70969736 </i>
    <i name="eentropy">     -0.00476911 </i>
    <i name="bandstr">    192.35158679 </i>
    <i name="atom">   2915.53815049 </i>
    <i name="e_fr_energy">    -23.89454007 </i>
    <i name="e_wo_entrp">    -23.88977097 </i>
    <i name="e_0_energy">    -23.89334780 </i>
   </energy>
  </scstep>
  <structure>
   <crystal>
    <varray name="basis" >
     <v>       3.86000000       0.00000000       0.00000000 </v>
     <v>       0.00000000       3.86000000       0.00000000 </v>
     <v>       0.00000000       0.00000000       3.86000000 </v>
    </varray>
    <i name="volume">     57.51245600 </i>
    <varray name="rec_basis" >
     <v>       0.25906736       0.00000000       0.00000000 </v>
     <v>       0.00000000       0.25906736       0.00000000 </v>
     <v>       0.00000000       0.00000000       0.25906736 </v>
    </varray>
   </crystal>
   <varray name="positions" >
    <v>       0.00000000       0.00000000       0.00000000 </v>
    <v>       0.00000000       0.50000000       0.50000000 </v>
    <v>       0.50000000       0.00000000       0.50000000 </v>
    <v>       0.50000000       0.50000000       0.00000000 </v>
   </varray>
  </structure>
  <varray name="forces" >
   <v>      -0.00000000      -0.00000000       0.00000000 </v>
   <v>       0.00000000       0.00000000      -0.00000000 </v>
   <v>      -0.00000000       0.00000000      -0.00000000 </v>
   <v>      -0.00000000      -0.00000000       0.00000000 </v>
  </varray>
  <varray name="stress" >
   <v>     315.14272768       0.00000000       0.00000000 </v>
   <v>      -0.00000000     315.14272768       0.00000000 </v>
   <v>      -0.00000000       0.00000000     315.14272768 </v>
  </varray>
  <energy>
   <i name="e_fr_energy">    -23.89454007 </i>
   <i name="e_wo_entrp">    -23.89334780 </i>
   <i name="e_0_energy">     -0.00476911 </i>
  </energy>
  <time name="totalsc">   13.91   15.60</time>
  <eigenvalues>
   <array>
    <dimension dim="1">band</dimension>
    <dimension dim="2">kpoint</dimension>
    <dimension dim="3">spin</dimension>
    <field>eigene</field>
    <field>occ</field>
    <set>
     <set comment="spin 1">
      <set comment="kpoint 1">
       <r>   -1.9708    1.0000 </r>
       <r>    1.1114    1.0000 </r>
       <r>    1.1114    1.0000 </r>
       <r>    1.1114    1.0000 </r>
       <r>    1.5825    1.0000 </r>
       <r>    1.5825    1.0000 </r>
       <r>    1.5825    1.0000 </r>
       <r>    4.5884    1.0000 </r>
       <r>    4.6255    1.0000 </r>
       <r>    4.6255    1.0000 </r>
       <r>    6.9471    1.0000 </r>
       <r>    6.9471    1.0000 </r>
       <r>    8.7079    0.6168 </r>
       <r>    8.7079    0.6168 </r>
       <r>    8.7079    0.6168 </r>
       <r>    8.9845   -0.0310 </r>
       <r>    8.9845   -0.0310 </r>
       <r>    8.9845   -0.0310 </r>
       <r>    9.2455    0.0016 </r>
       <r>    9.2455    0.0016 </r>
       <r>    9.2455    0.0016 </r>
       <r>   10.7205    0.0000 </r>
       <r>   10.7205    0.0000 </r>
       <r>   10.7205    0.0000 </r>
      </set>
      <set comment="kpoint 2">
       <r>   -1.8605    1.0000 </r>
       <r>    1.1576    1.0000 </r>
       <r>    1.1930    1.0000 </r>
       <r>    1.1930    1.0000 </r>
       <r>    1.6287    1.0000 </r>
       <r>    1.6553    1.0000 </r>
       <r>    1.6553    1.0000 </r>
       <r>    4.5188    1.0000 </r>
       <r>    4.6789    1.0000 </r>
       <r>    4.6834    1.0000 </r>
       <r>    6.8628    1.0000 </r>
       <r>    6.9788    1.0000 </r>
       <r>    8.3209    0.9951 </r>
       <r>    8.3209    0.9951 </r>
       <r>    8.5886    1.0231 </r>
       <r>    8.5886    1.0231 </r>
       <r>    8.6532    0.8641 </r>
       <r>    8.7776    0.2599 </r>
       <r>    9.1109    0.0044 </r>
       <r>    9.2374    0.0019 </r>
       <r>    9.2374    0.0019 </r>
       <r>   10.2325    0.0000 </r>
       <r>   11.4366    0.0000 </r>
       <r>   11.4366    0.0000 </r>
      </set>
      <set comment="kpoint 3">
       <r>   -1.6426    1.0000 </r>
       <r>    1.2420    1.0000 </r>
       <r>    1.3516    1.0000 </r>
       <r>    1.3516    1.0000 </r>
       <r>    1.7204    1.0000 </r>
       <r>    1.8003    1.0000 </r>
       <r>    1.8003    1.0000 </r>
       <r>    4.3752    1.0000 </r>
       <r>    4.7952    1.0000 </r>
       <r>    4.7989    1.0000 </r>
       <r>    6.7011    1.0000 </r>
       <r>    7.0412    1.0000 </r>
       <r>    7.5412    1.0000 </r>
       <r>    7.5412    1.0000 </r>
       <r>    8.3425    0.9953 </r>
       <r>    8.3425    0.9953 </r>
       <r>    8.3535    0.9958 </r>
       <r>    8.5267    1.0505 </r>
       <r>    8.8828   -0.0351 </r>
       <r>    9.2360    0.0019 </r>
       <r>    9.2360    0.0019 </r>
       <r>    9.5126    0.0000 </r>
       <r>   12.3200    0.0000 </r>
       <r>   12.3200    0.0000 </r>
      </set>
      <set comment="kpoint 4">
       <r>   -1.3231    1.0000 </r>
       <r>    1.3470    1.0000 </r>
       <r>    1.5775    1.0000 </r>
       <r>    1.5775    1.0000 </r>
       <r>    1.8557    1.0000 </r>
       <r>    2.0162    1.0000 </r>
       <r>    2.0162    1.0000 </r>
       <r>    4.1724    1.0000 </r>
       <r>    4.9682    1.0000 </r>
       <r>    4.9708    1.0000 </r>
       <r>    6.4766    1.0000 </r>
       <r>    6.7631    1.0000 </r>
       <r>    6.7631    1.0000 </r>
       <r>    7.1327    1.0000 </r>
       <r>    7.7058    1.0000 </r>
       <r>    7.9992    1.0000 </r>
       <r>    7.9992    1.0000 </r>
       <r>    8.2778    0.9962 </r>
       <r>    8.6501    0.8751 </r>
       <r>    8.8151    0.1083 </r>
       <r>    9.2357    0.0019 </r>
       <r>    9.2357    0.0019 </r>
       <r>   13.2421    0.0000 </r>
       <r>   13.2421    0.0000 </r>
      </set>
      <set comment="kpoint 5">
       <r>   -0.9127    1.0000 </r>
       <r>    1.4396    1.0000 </r>
       <r>    1.8534    1.0000 </r>
       <r>    1.8534    1.0000 </r>
       <r>    2.0319    1.0000 </r>
       <r>    2.3006    1.0000 </r>
       <r>    2.3006    1.0000 </r>
       <r>    3.9242    1.0000 </r>
       <r>    5.1922    1.0000 </r>
       <r>    5.1977    1.0000 </r>
       <r>    6.0169    1.0000 </r>
       <r>    6.0169    1.0000 </r>
       <r>    6.2140    1.0000 </r>
       <r>    6.9346    1.0000 </r>
       <r>    7.2507    1.0000 </r>
       <r>    7.5911    1.0000 </r>
       <r>    7.5911    1.0000 </r>
       <r>    7.9020    1.0000 </r>
       <r>    8.2168    0.9983 </r>
       <r>    8.4592    1.0230 </r>
       <r>    9.2360    0.0019 </r>
       <r>    9.2360    0.0019 </r>
       <r>   14.1625    0.0000 </r>
       <r>   14.1625    0.0000 </r>
      </set>
      <set comment="kpoint 6">
       <r>   -0.4288    1.0000 </r>
       <r>    1.4667    1.0000 </r>
       <r>    2.1504    1.0000 </r>
       <r>    2.1504    1.0000 </r>
       <r>    2.2454    1.0000 </r>
       <r>    2.6496    1.0000 </r>
       <r>    2.6496    1.0000 </r>
       <r>    3.6455    1.0000 </r>
       <r>    5.3145    1.0000 </r>
       <r>    5.3145    1.0000 </r>
       <r>    5.4436    1.0000 </r>
       <r>    5.4769    1.0000 </r>
       <r>    5.9650    1.0000 </r>
       <r>    6.2171    1.0000 </r>
       <r>    7.1701    1.0000 </r>
       <r>    7.1701    1.0000 </r>
       <r>    7.3920    1.0000 </r>
       <r>    7.4682    1.0000 </r>
       <r>    7.6776    1.0000 </r>
       <r>    8.2788    0.9962 </r>
       <r>    9.2364    0.0019 </r>
       <r>    9.2364    0.0019 </r>
       <r>   15.0402    0.0000 </r>
       <r>   15.0402    0.0000 </r>
      </set>
      <set comment="kpoint 7">
       <r>    0.0992    1.0000 </r>
       <r>    1.3584    1.0000 </r>
       <r>    2.4189    1.0000 </r>
       <r>    2.4189    1.0000 </r>
       <r>    2.4912    1.0000 </r>
       <r>    3.0600    1.0000 </r>
       <r>    3.0600    1.0000 </r>
       <r>    3.3505    1.0000 </r>
       <r>    4.6632    1.0000 </r>
       <r>    4.6632    1.0000 </r>
       <r>    5.5353    1.0000 </r>
       <r>    5.6941    1.0000 </r>
       <r>    5.8051    1.0000 </r>
       <r>    5.9560    1.0000 </r>
       <r>    6.8077    1.0000 </r>
       <r>    6.8077    1.0000 </r>
       <r>    7.0214    1.0000 </r>
       <r>    7.1742    1.0000 </r>
       <r>    7.5523    1.0000 </r>
       <r>    8.0952    0.9999 </r>
       <r>    9.2369    0.0019 </r>
       <r>    9.2369    0.0019 </r>
       <r>   15.7518    0.0000 </r>
       <r>   15.7518    0.0000 </r>
      </set>
      <set comment="kpoint 8">
       <r>    0.6226    1.0000 </r>
       <r>    1.0683    1.0000 </r>
       <r>    2.5857    1.0000 </r>
       <r>    2.5857    1.0000 </r>
       <r>    2.7628    1.0000 </r>
       <r>    3.0525    1.0000 </r>
       <r>    3.5314    1.0000 </r>
       <r>    3.5314    1.0000 </r>
       <r>    4.0690    1.0000 </r>
       <r>    4.0690    1.0000 </r>
       <r>    5.4251    1.0000 </r>
       <r>    5.4383    1.0000 </r>
       <r>    6.1771    1.0000 </r>
       <r>    6.2861    1.0000 </r>
       <r>    6.5860    1.0000 </r>
       <r>    6.5911    1.0000 </r>
       <r>    6.5911    1.0000 </r>
       <r>    6.7068    1.0000 </r>
       <r>    7.7266    1.0000 </r>
       <r>    7.9095    1.0000 </r>
       <r>    9.2371    0.0019 </r>
       <r>    9.2371    0.0019 </r>
       <r>   16.0157    0.0000 </r>
       <r>   16.0157    0.0000 </r>
      </set>
      <set comment="kpoint 9">
       <r>   -1.7518    1.0000 </r>
       <r>    1.2398    1.0000 </r>
       <r>    1.2398    1.0000 </r>
       <r>    1.2638    1.0000 </r>
       <r>    1.7006    1.0000 </r>
       <r>    1.7006    1.0000 </r>
       <r>    1.7349    1.0000 </r>
       <r>    4.4798    1.0000 </r>
       <r>    4.7058    1.0000 </r>
       <r>    4.7340    1.0000 </r>
       <r>    6.8395    1.0000 </r>
       <r>    6.9578    1.0000 </r>
       <r>    7.9478    1.0000 </r>
       <r>    8.0687    0.9999 </r>
       <r>    8.0687    0.9999 </r>
       <r>    8.4546    1.0209 </r>
       <r>    8.5591    1.0475 </r>
       <r>    8.5591    1.0475 </r>
       <r>    9.1094    0.0044 </r>
       <r>    9.1094    0.0044 </r>
       <r>    9.1618    0.0045 </r>
       <r>   10.9586    0.0000 </r>
       <r>   10.9586    0.0000 </r>
       <r>   11.9566    0.0000 </r>
      </set>
      <set comment="kpoint 10">
       <r>   -1.5372    1.0000 </r>
       <r>    1.3255    1.0000 </r>
       <r>    1.3997    1.0000 </r>
       <r>    1.4026    1.0000 </r>
       <r>    1.7904    1.0000 </r>
       <r>    1.8438    1.0000 </r>
       <r>    1.8917    1.0000 </r>
       <r>    4.3588    1.0000 </r>
       <r>    4.8046    1.0000 </r>
       <r>    4.8366    1.0000 </r>
       <r>    6.7053    1.0000 </r>
       <r>    7.0100    1.0000 </r>
       <r>    7.2923    1.0000 </r>
       <r>    7.3320    1.0000 </r>
       <r>    7.6381    1.0000 </r>
       <r>    8.2300    0.9979 </r>
       <r>    8.3397    0.9952 </r>
       <r>    8.4261    1.0095 </r>
       <r>    8.8922   -0.0426 </r>
       <r>    9.0997    0.0037 </r>
       <r>    9.1152    0.0046 </r>
       <r>   10.2455    0.0000 </r>
       <r>   11.8080    0.0000 </r>
       <r>   12.7209    0.0000 </r>
      </set>
      <set comment="kpoint 11">
       <r>   -1.2225    1.0000 </r>
       <r>    1.4321    1.0000 </r>
       <r>    1.6043    1.0000 </r>
       <r>    1.6278    1.0000 </r>
       <r>    1.9230    1.0000 </r>
       <r>    2.0570    1.0000 </r>
       <r>    2.1194    1.0000 </r>
       <r>    4.1695    1.0000 </r>
       <r>    4.9706    1.0000 </r>
       <r>    4.9857    1.0000 </r>
       <r>    6.4998    1.0000 </r>
       <r>    6.5297    1.0000 </r>
       <r>    6.6407    1.0000 </r>
       <r>    7.0707    1.0000 </r>
       <r>    7.1114    1.0000 </r>
       <r>    7.9150    1.0000 </r>
       <r>    8.0229    1.0000 </r>
       <r>    8.1654    0.9994 </r>
       <r>    8.6344    0.9266 </r>
       <r>    9.0922    0.0031 </r>
       <r>    9.0929    0.0031 </r>
       <r>    9.5179    0.0000 </r>
       <r>   12.6645    0.0000 </r>
       <r>   13.5761    0.0000 </r>
      </set>
      <set comment="kpoint 12">
       <r>   -0.8181    1.0000 </r>
       <r>    1.5265    1.0000 </r>
       <r>    1.8597    1.0000 </r>
       <r>    1.9072    1.0000 </r>
       <r>    2.0956    1.0000 </r>
       <r>    2.3374    1.0000 </r>
       <r>    2.4068    1.0000 </r>
       <r>    3.9325    1.0000 </r>
       <r>    5.1643    1.0000 </r>
       <r>    5.1957    1.0000 </r>
       <r>    5.8046    1.0000 </r>
       <r>    5.9459    1.0000 </r>
       <r>    6.2704    1.0000 </r>
       <r>    6.4370    1.0000 </r>
       <r>    7.2464    1.0000 </r>
       <r>    7.5350    1.0000 </r>
       <r>    7.6374    1.0000 </r>
       <r>    7.8006    1.0000 </r>
       <r>    8.3115    0.9952 </r>
       <r>    8.9200   -0.0516 </r>
       <r>    9.0824    0.0019 </r>
       <r>    9.0871    0.0025 </r>
       <r>   13.4812    0.0000 </r>
       <r>   14.4538    0.0000 </r>
      </set>
      <set comment="kpoint 13">
       <r>   -0.3408    1.0000 </r>
       <r>    1.5538    1.0000 </r>
       <r>    2.1516    1.0000 </r>
       <r>    2.2097    1.0000 </r>
       <r>    2.3042    1.0000 </r>
       <r>    2.6804    1.0000 </r>
       <r>    2.7366    1.0000 </r>
       <r>    3.6641    1.0000 </r>
       <r>    5.1288    1.0000 </r>
       <r>    5.2774    1.0000 </r>
       <r>    5.3211    1.0000 </r>
       <r>    5.4698    1.0000 </r>
       <r>    5.8451    1.0000 </r>
       <r>    6.1027    1.0000 </r>
       <r>    7.1395    1.0000 </r>
       <r>    7.2301    1.0000 </r>
       <r>    7.3845    1.0000 </r>
       <r>    7.4093    1.0000 </r>
       <r>    7.8576    1.0000 </r>
       <r>    8.5287    1.0509 </r>
       <r>    9.0781    0.0013 </r>
       <r>    9.0836    0.0021 </r>
       <r>   14.2069    0.0000 </r>
       <r>   15.2767    0.0000 </r>
      </set>
      <set comment="kpoint 14">
       <r>    0.1812    1.0000 </r>
       <r>    1.4427    1.0000 </r>
       <r>    2.4396    1.0000 </r>
       <r>    2.4852    1.0000 </r>
       <r>    2.5439    1.0000 </r>
       <r>    3.0812    1.0000 </r>
       <r>    3.0934    1.0000 </r>
       <r>    3.3788    1.0000 </r>
       <r>    4.5128    1.0000 </r>
       <r>    4.6507    1.0000 </r>
       <r>    5.3270    1.0000 </r>
       <r>    5.4147    1.0000 </r>
       <r>    5.7887    1.0000 </r>
       <r>    6.1639    1.0000 </r>
       <r>    6.8017    1.0000 </r>
       <r>    6.8680    1.0000 </r>
       <r>    6.9563    1.0000 </r>
       <r>    7.3511    1.0000 </r>
       <r>    7.5954    1.0000 </r>
       <r>    8.2561    0.9970 </r>
       <r>    9.0769    0.0011 </r>
       <r>    9.0810    0.0017 </r>
       <r>   14.7813    0.0000 </r>
       <r>   15.5915    0.0000 </r>
      </set>
      <set comment="kpoint 15">
       <r>    0.7013    1.0000 </r>
       <r>    1.1483    1.0000 </r>
       <r>    2.6387    1.0000 </r>
       <r>    2.6545    1.0000 </r>
       <r>    2.8083    1.0000 </r>
       <r>    3.0898    1.0000 </r>
       <r>    3.4824    1.0000 </r>
       <r>    3.5318    1.0000 </r>
       <r>    3.9761    1.0000 </r>
       <r>    4.0799    1.0000 </r>
       <r>    5.2187    1.0000 </r>
       <r>    5.2293    1.0000 </r>
       <r>    6.1471    1.0000 </r>
       <r>    6.4607    1.0000 </r>
       <r>    6.5391    1.0000 </r>
       <r>    6.6112    1.0000 </r>
       <r>    6.6363    1.0000 </r>
       <r>    6.8736    1.0000 </r>
       <r>    7.8001    1.0000 </r>
       <r>    8.0199    1.0000 </r>
       <r>    9.0774    0.0012 </r>
       <r>    9.0789    0.0014 </r>
       <r>   15.1735    0.0000 </r>
       <r>   15.4279    0.0000 </r>
      </set>
      <set comment="kpoint 16">
       <r>   -1.3291    1.0000 </r>
       <r>    1.4880    1.0000 </r>
       <r>    1.4880    1.0000 </r>
       <r>    1.5087    1.0000 </r>
       <r>    1.9300    1.0000 </r>
       <r>    1.9300    1.0000 </r>
       <r>    2.0651    1.0000 </r>
       <r>    4.2874    1.0000 </r>
       <r>    4.8637    1.0000 </r>
       <r>    4.9120    1.0000 </r>
       <r>    6.6498    1.0000 </r>
       <r>    6.8786    1.0000 </r>
       <r>    6.8786    1.0000 </r>
       <r>    6.9266    1.0000 </r>
       <r>    7.0185    1.0000 </r>
       <r>    8.0278    1.0000 </r>
       <r>    8.2578    0.9970 </r>
       <r>    8.2578    0.9970 </r>
       <r>    8.8604   -0.0061 </r>
       <r>    8.8604   -0.0061 </r>
       <r>    8.9865   -0.0300 </r>
       <r>   11.0560    0.0000 </r>
       <r>   11.0560    0.0000 </r>
       <r>   13.3729    0.0000 </r>
      </set>
      <set comment="kpoint 17">
       <r>   -1.0239    1.0000 </r>
       <r>    1.5982    1.0000 </r>
       <r>    1.6731    1.0000 </r>
       <r>    1.7204    1.0000 </r>
       <r>    2.0572    1.0000 </r>
       <r>    2.1378    1.0000 </r>
       <r>    2.3052    1.0000 </r>
       <r>    4.1411    1.0000 </r>
       <r>    5.0004    1.0000 </r>
       <r>    5.0170    1.0000 </r>
       <r>    6.1468    1.0000 </r>
       <r>    6.3699    1.0000 </r>
       <r>    6.3902    1.0000 </r>
       <r>    6.4999    1.0000 </r>
       <r>    7.1183    1.0000 </r>
       <r>    7.7523    1.0000 </r>
       <r>    7.9932    1.0000 </r>
       <r>    8.0489    1.0000 </r>
       <r>    8.5654    1.0443 </r>
       <r>    8.8339    0.0511 </r>
       <r>    8.8976   -0.0457 </r>
       <r>   10.2807    0.0000 </r>
       <r>   11.8526    0.0000 </r>
       <r>   14.1480    0.0000 </r>
      </set>
      <set comment="kpoint 18">
       <r>   -0.6316    1.0000 </r>
       <r>    1.6960    1.0000 </r>
       <r>    1.8956    1.0000 </r>
       <r>    2.0066    1.0000 </r>
       <r>    2.2224    1.0000 </r>
       <r>    2.4105    1.0000 </r>
       <r>    2.5908    1.0000 </r>
       <r>    3.9360    1.0000 </r>
       <r>    5.1274    1.0000 </r>
       <r>    5.2087    1.0000 </r>
       <r>    5.4583    1.0000 </r>
       <r>    5.7975    1.0000 </r>
       <r>    5.8325    1.0000 </r>
       <r>    6.3212    1.0000 </r>
       <r>    7.2821    1.0000 </r>
       <r>    7.4194    1.0000 </r>
       <r>    7.6533    1.0000 </r>
       <r>    7.7197    1.0000 </r>
       <r>    8.2302    0.9979 </r>
       <r>    8.8166    0.1031 </r>
       <r>    8.8444    0.0253 </r>
       <r>    9.5972    0.0000 </r>
       <r>   12.5980    0.0000 </r>
       <r>   14.9553    0.0000 </r>
      </set>
      <set comment="kpoint 19">
       <r>   -0.1678    1.0000 </r>
       <r>    1.7237    1.0000 </r>
       <r>    2.1695    1.0000 </r>
       <r>    2.3202    1.0000 </r>
       <r>    2.4212    1.0000 </r>
       <r>    2.7419    1.0000 </r>
       <r>    2.8914    1.0000 </r>
       <r>    3.6935    1.0000 </r>
       <r>    4.8244    1.0000 </r>
       <r>    5.1855    1.0000 </r>
       <r>    5.1981    1.0000 </r>
       <r>    5.3525    1.0000 </r>
       <r>    5.4731    1.0000 </r>
       <r>    6.2178    1.0000 </r>
       <r>    7.0696    1.0000 </r>
       <r>    7.2789    1.0000 </r>
       <r>    7.3236    1.0000 </r>
       <r>    7.4891    1.0000 </r>
       <r>    7.8331    1.0000 </r>
       <r>    8.8055    0.1426 </r>
       <r>    8.8149    0.1088 </r>
       <r>    9.0544   -0.0035 </r>
       <r>   13.2570    0.0000 </r>
       <r>   15.1523    0.0000 </r>
      </set>
      <set comment="kpoint 20">
       <r>    0.3416    1.0000 </r>
       <r>    1.6064    1.0000 </r>
       <r>    2.4729    1.0000 </r>
       <r>    2.6123    1.0000 </r>
       <r>    2.6483    1.0000 </r>
       <r>    3.1221    1.0000 </r>
       <r>    3.1691    1.0000 </r>
       <r>    3.4307    1.0000 </r>
       <r>    4.2621    1.0000 </r>
       <r>    4.6218    1.0000 </r>
       <r>    5.0302    1.0000 </r>
       <r>    5.1214    1.0000 </r>
       <r>    5.7832    1.0000 </r>
       <r>    6.3018    1.0000 </r>
       <r>    6.7751    1.0000 </r>
       <r>    6.9103    1.0000 </r>
       <r>    6.9300    1.0000 </r>
       <r>    7.3885    1.0000 </r>
       <r>    7.7293    1.0000 </r>
       <r>    8.6370    0.9190 </r>
       <r>    8.7983    0.1704 </r>
       <r>    8.8002    0.1629 </r>
       <r>   13.8002    0.0000 </r>
       <r>   14.8501    0.0000 </r>
      </set>
      <set comment="kpoint 21">
       <r>    0.8541    1.0000 </r>
       <r>    1.3030    1.0000 </r>
       <r>    2.7318    1.0000 </r>
       <r>    2.7893    1.0000 </r>
       <r>    2.8976    1.0000 </r>
       <r>    3.1615    1.0000 </r>
       <r>    3.4125    1.0000 </r>
       <r>    3.5122    1.0000 </r>
       <r>    3.8373    1.0000 </r>
       <r>    4.0932    1.0000 </r>
       <r>    4.9229    1.0000 </r>
       <r>    4.9900    1.0000 </r>
       <r>    6.1301    1.0000 </r>
       <r>    6.5079    1.0000 </r>
       <r>    6.5694    1.0000 </r>
       <r>    6.6269    1.0000 </r>
       <r>    6.6861    1.0000 </r>
       <r>    6.9498    1.0000 </r>
       <r>    7.9981    1.0000 </r>
       <r>    8.2963    0.9956 </r>
       <r>    8.7945    0.1861 </r>
       <r>    8.7945    0.1859 </r>
       <r>   14.2223    0.0000 </r>
       <r>   14.5542    0.0000 </r>
      </set>
      <set comment="kpoint 22">
       <r>   -0.7330    1.0000 </r>
       <r>    1.7959    1.0000 </r>
       <r>    1.8363    1.0000 </r>
       <r>    1.8363    1.0000 </r>
       <r>    2.2570    1.0000 </r>
       <r>    2.2570    1.0000 </r>
       <r>    2.5493    1.0000 </r>
       <r>    4.0579    1.0000 </r>
       <r>    5.0606    1.0000 </r>
       <r>    5.0932    1.0000 </r>
       <r>    5.6922    1.0000 </r>
       <r>    5.6922    1.0000 </r>
       <r>    6.0203    1.0000 </r>
       <r>    6.4214    1.0000 </r>
       <r>    7.2206    1.0000 </r>
       <r>    7.5230    1.0000 </r>
       <r>    7.8514    1.0000 </r>
       <r>    7.8514    1.0000 </r>
       <r>    8.5049    1.0441 </r>
       <r>    8.5049    1.0441 </r>
       <r>    8.7247    0.5295 </r>
       <r>   11.0269    0.0000 </r>
       <r>   11.0269    0.0000 </r>
       <r>   14.8459    0.0000 </r>
      </set>
      <set comment="kpoint 23">
       <r>   -0.3588    1.0000 </r>
       <r>    1.9394    1.0000 </r>
       <r>    1.9776    1.0000 </r>
       <r>    2.1316    1.0000 </r>
       <r>    2.4113    1.0000 </r>
       <r>    2.5190    1.0000 </r>
       <r>    2.8243    1.0000 </r>
       <r>    3.9124    1.0000 </r>
       <r>    5.0563    1.0000 </r>
       <r>    5.0973    1.0000 </r>
       <r>    5.2333    1.0000 </r>
       <r>    5.2627    1.0000 </r>
       <r>    5.5651    1.0000 </r>
       <r>    6.2961    1.0000 </r>
       <r>    7.2441    1.0000 </r>
       <r>    7.4200    1.0000 </r>
       <r>    7.5726    1.0000 </r>
       <r>    7.5846    1.0000 </r>
       <r>    8.1381    0.9996 </r>
       <r>    8.4660    1.0262 </r>
       <r>    8.5982    1.0093 </r>
       <r>   10.2852    0.0000 </r>
       <r>   11.7265    0.0000 </r>
       <r>   14.8590    0.0000 </r>
      </set>
      <set comment="kpoint 24">
       <r>    0.0841    1.0000 </r>
       <r>    1.9667    1.0000 </r>
       <r>    2.2179    1.0000 </r>
       <r>    2.4608    1.0000 </r>
       <r>    2.5952    1.0000 </r>
       <r>    2.8348    1.0000 </r>
       <r>    3.0914    1.0000 </r>
       <r>    3.7188    1.0000 </r>
       <r>    4.4745    1.0000 </r>
       <r>    4.8520    1.0000 </r>
       <r>    5.0688    1.0000 </r>
       <r>    5.0778    1.0000 </r>
       <r>    5.5002    1.0000 </r>
       <r>    6.2260    1.0000 </r>
       <r>    6.9493    1.0000 </r>
       <r>    7.2304    1.0000 </r>
       <r>    7.2469    1.0000 </r>
       <r>    7.6846    1.0000 </r>
       <r>    7.7389    1.0000 </r>
       <r>    8.4434    1.0161 </r>
       <r>    8.5155    1.0478 </r>
       <r>    9.6631    0.0000 </r>
       <r>   12.3525    0.0000 </r>
       <r>   14.4126    0.0000 </r>
      </set>
      <set comment="kpoint 25">
       <r>    0.5730    1.0000 </r>
       <r>    1.8376    1.0000 </r>
       <r>    2.5106    1.0000 </r>
       <r>    2.7825    1.0000 </r>
       <r>    2.8023    1.0000 </r>
       <r>    3.1818    1.0000 </r>
       <r>    3.2933    1.0000 </r>
       <r>    3.4963    1.0000 </r>
       <r>    3.9715    1.0000 </r>
       <r>    4.5695    1.0000 </r>
       <r>    4.6411    1.0000 </r>
       <r>    4.9577    1.0000 </r>
       <r>    5.7885    1.0000 </r>
       <r>    6.3075    1.0000 </r>
       <r>    6.7055    1.0000 </r>
       <r>    6.8446    1.0000 </r>
       <r>    6.9275    1.0000 </r>
       <r>    7.3160    1.0000 </r>
       <r>    7.9935    1.0000 </r>
       <r>    8.4321    1.0116 </r>
       <r>    8.4663    1.0264 </r>
       <r>    9.1517    0.0047 </r>
       <r>   12.8853    0.0000 </r>
       <r>   14.0364    0.0000 </r>
      </set>
      <set comment="kpoint 26">
       <r>    1.0713    1.0000 </r>
       <r>    1.5201    1.0000 </r>
       <r>    2.8264    1.0000 </r>
       <r>    2.9834    1.0000 </r>
       <r>    3.0266    1.0000 </r>
       <r>    3.2613    1.0000 </r>
       <r>    3.3752    1.0000 </r>
       <r>    3.4099    1.0000 </r>
       <r>    3.7467    1.0000 </r>
       <r>    4.1003    1.0000 </r>
       <r>    4.6372    1.0000 </r>
       <r>    4.7776    1.0000 </r>
       <r>    6.1126    1.0000 </r>
       <r>    6.4662    1.0000 </r>
       <r>    6.5498    1.0000 </r>
       <r>    6.6008    1.0000 </r>
       <r>    6.6860    1.0000 </r>
       <r>    6.9038    1.0000 </r>
       <r>    8.3381    0.9952 </r>
       <r>    8.4306    1.0110 </r>
       <r>    8.4404    1.0148 </r>
       <r>    8.7195    0.5567 </r>
       <r>   13.3234    0.0000 </r>
       <r>   13.6914    0.0000 </r>
      </set>
      <set comment="kpoint 27">
       <r>   -0.0086    1.0000 </r>
       <r>    2.1131    1.0000 </r>
       <r>    2.2419    1.0000 </r>
       <r>    2.2419    1.0000 </r>
       <r>    2.6599    1.0000 </r>
       <r>    2.6599    1.0000 </r>
       <r>    3.0781    1.0000 </r>
       <r>    3.8419    1.0000 </r>
       <r>    4.6681    1.0000 </r>
       <r>    4.6681    1.0000 </r>
       <r>    5.0662    1.0000 </r>
       <r>    5.2535    1.0000 </r>
       <r>    5.3816    1.0000 </r>
       <r>    6.2065    1.0000 </r>
       <r>    7.0197    1.0000 </r>
       <r>    7.3714    1.0000 </r>
       <r>    7.3714    1.0000 </r>
       <r>    7.6684    1.0000 </r>
       <r>    8.0719    0.9999 </r>
       <r>    8.0719    0.9999 </r>
       <r>    8.3891    0.9998 </r>
       <r>   10.9439    0.0000 </r>
       <r>   10.9439    0.0000 </r>
       <r>   14.2476    0.0000 </r>
      </set>
      <set comment="kpoint 28">
       <r>    0.4055    1.0000 </r>
       <r>    2.2656    1.0000 </r>
       <r>    2.3046    1.0000 </r>
       <r>    2.5820    1.0000 </r>
       <r>    2.8244    1.0000 </r>
       <r>    2.9601    1.0000 </r>
       <r>    3.3103    1.0000 </r>
       <r>    3.7211    1.0000 </r>
       <r>    4.1509    1.0000 </r>
       <r>    4.3817    1.0000 </r>
       <r>    4.8834    1.0000 </r>
       <r>    4.9949    1.0000 </r>
       <r>    5.5694    1.0000 </r>
       <r>    6.1469    1.0000 </r>
       <r>    6.7765    1.0000 </r>
       <r>    7.0721    1.0000 </r>
       <r>    7.1004    1.0000 </r>
       <r>    7.6544    1.0000 </r>
       <r>    7.9927    1.0000 </r>
       <r>    8.0359    1.0000 </r>
       <r>    8.2325    0.9979 </r>
       <r>   10.2745    0.0000 </r>
       <r>   11.5467    0.0000 </r>
       <r>   13.7358    0.0000 </r>
      </set>
      <set comment="kpoint 29">
       <r>    0.8640    1.0000 </r>
       <r>    2.1150    1.0000 </r>
       <r>    2.5527    1.0000 </r>
       <r>    2.9308    1.0000 </r>
       <r>    3.0023    1.0000 </r>
       <r>    3.2738    1.0000 </r>
       <r>    3.4566    1.0000 </r>
       <r>    3.5614    1.0000 </r>
       <r>    3.7118    1.0000 </r>
       <r>    4.2913    1.0000 </r>
       <r>    4.4862    1.0000 </r>
       <r>    4.8387    1.0000 </r>
       <r>    5.8083    1.0000 </r>
       <r>    6.2224    1.0000 </r>
       <r>    6.5764    1.0000 </r>
       <r>    6.7272    1.0000 </r>
       <r>    6.8202    1.0000 </r>
       <r>    7.2274    1.0000 </r>
       <r>    8.0232    1.0000 </r>
       <r>    8.1269    0.9997 </r>
       <r>    8.3650    0.9966 </r>
       <r>    9.7079    0.0000 </r>
       <r>   12.0761    0.0000 </r>
       <r>   13.3112    0.0000 </r>
      </set>
      <set comment="kpoint 30">
       <r>    1.3377    1.0000 </r>
       <r>    1.7796    1.0000 </r>
       <r>    2.8552    1.0000 </r>
       <r>    3.1891    1.0000 </r>
       <r>    3.1967    1.0000 </r>
       <r>    3.2433    1.0000 </r>
       <r>    3.3791    1.0000 </r>
       <r>    3.4414    1.0000 </r>
       <r>    3.7372    1.0000 </r>
       <r>    4.0943    1.0000 </r>
       <r>    4.4002    1.0000 </r>
       <r>    4.6154    1.0000 </r>
       <r>    6.0796    1.0000 </r>
       <r>    6.3868    1.0000 </r>
       <r>    6.4622    1.0000 </r>
       <r>    6.5021    1.0000 </r>
       <r>    6.5961    1.0000 </r>
       <r>    6.8164    1.0000 </r>
       <r>    8.0311    1.0000 </r>
       <r>    8.0631    0.9999 </r>
       <r>    8.7727    0.2829 </r>
       <r>    9.2159    0.0026 </r>
       <r>   12.5296    0.0000 </r>
       <r>   12.9271    0.0000 </r>
      </set>
      <set comment="kpoint 31">
       <r>    0.7832    1.0000 </r>
       <r>    2.4334    1.0000 </r>
       <r>    2.5912    1.0000 </r>
       <r>    2.5912    1.0000 </r>
       <r>    3.1046    1.0000 </r>
       <r>    3.1046    1.0000 </r>
       <r>    3.5092    1.0000 </r>
       <r>    3.6855    1.0000 </r>
       <r>    3.9623    1.0000 </r>
       <r>    3.9623    1.0000 </r>
       <r>    4.6443    1.0000 </r>
       <r>    4.9021    1.0000 </r>
       <r>    5.6835    1.0000 </r>
       <r>    6.0833    1.0000 </r>
       <r>    6.5735    1.0000 </r>
       <r>    6.8508    1.0000 </r>
       <r>    6.8508    1.0000 </r>
       <r>    7.6090    1.0000 </r>
       <r>    7.6090    1.0000 </r>
       <r>    7.9961    1.0000 </r>
       <r>    8.3741    0.9976 </r>
       <r>   10.8540    0.0000 </r>
       <r>   10.8540    0.0000 </r>
       <r>   13.1721    0.0000 </r>
      </set>
      <set comment="kpoint 32">
       <r>    1.1998    1.0000 </r>
       <r>    2.4004    1.0000 </r>
       <r>    2.6045    1.0000 </r>
       <r>    2.8860    1.0000 </r>
       <r>    3.2421    1.0000 </r>
       <r>    3.4212    1.0000 </r>
       <r>    3.6091    1.0000 </r>
       <r>    3.6276    1.0000 </r>
       <r>    3.6288    1.0000 </r>
       <r>    4.0109    1.0000 </r>
       <r>    4.3666    1.0000 </r>
       <r>    4.7436    1.0000 </r>
       <r>    5.8179    1.0000 </r>
       <r>    6.1679    1.0000 </r>
       <r>    6.3975    1.0000 </r>
       <r>    6.5457    1.0000 </r>
       <r>    6.6098    1.0000 </r>
       <r>    7.1814    1.0000 </r>
       <r>    7.6016    1.0000 </r>
       <r>    7.8184    1.0000 </r>
       <r>    8.7986    0.1695 </r>
       <r>   10.2597    0.0000 </r>
       <r>   11.3815    0.0000 </r>
       <r>   12.7025    0.0000 </r>
      </set>
      <set comment="kpoint 33">
       <r>    1.6328    1.0000 </r>
       <r>    2.0509    1.0000 </r>
       <r>    2.8086    1.0000 </r>
       <r>    2.9803    1.0000 </r>
       <r>    3.3743    1.0000 </r>
       <r>    3.5008    1.0000 </r>
       <r>    3.5025    1.0000 </r>
       <r>    3.6061    1.0000 </r>
       <r>    3.7582    1.0000 </r>
       <r>    4.0702    1.0000 </r>
       <r>    4.2320    1.0000 </r>
       <r>    4.5038    1.0000 </r>
       <r>    5.9934    1.0000 </r>
       <r>    6.2437    1.0000 </r>
       <r>    6.3295    1.0000 </r>
       <r>    6.4125    1.0000 </r>
       <r>    6.4226    1.0000 </r>
       <r>    6.7758    1.0000 </r>
       <r>    7.6299    1.0000 </r>
       <r>    7.6991    1.0000 </r>
       <r>    9.2521    0.0015 </r>
       <r>    9.7345    0.0000 </r>
       <r>   11.8518    0.0000 </r>
       <r>   12.2797    0.0000 </r>
      </set>
      <set comment="kpoint 34">
       <r>    1.5624    1.0000 </r>
       <r>    2.6319    1.0000 </r>
       <r>    2.6319    1.0000 </r>
       <r>    2.6678    1.0000 </r>
       <r>    3.5038    1.0000 </r>
       <r>    3.5038    1.0000 </r>
       <r>    3.6263    1.0000 </r>
       <r>    3.7533    1.0000 </r>
       <r>    3.8392    1.0000 </r>
       <r>    3.8392    1.0000 </r>
       <r>    4.2132    1.0000 </r>
       <r>    4.6203    1.0000 </r>
       <r>    5.8065    1.0000 </r>
       <r>    6.2195    1.0000 </r>
       <r>    6.2660    1.0000 </r>
       <r>    6.3388    1.0000 </r>
       <r>    6.3388    1.0000 </r>
       <r>    7.1903    1.0000 </r>
       <r>    7.1903    1.0000 </r>
       <r>    7.5641    1.0000 </r>
       <r>    9.2637    0.0012 </r>
       <r>   10.7830    0.0000 </r>
       <r>   10.7830    0.0000 </r>
       <r>   12.1900    0.0000 </r>
      </set>
      <set comment="kpoint 35">
       <r>    1.9337    1.0000 </r>
       <r>    2.2969    1.0000 </r>
       <r>    2.7286    1.0000 </r>
       <r>    2.7401    1.0000 </r>
       <r>    3.5634    1.0000 </r>
       <r>    3.6089    1.0000 </r>
       <r>    3.7135    1.0000 </r>
       <r>    3.7799    1.0000 </r>
       <r>    3.8485    1.0000 </r>
       <r>    4.0337    1.0000 </r>
       <r>    4.1379    1.0000 </r>
       <r>    4.4159    1.0000 </r>
       <r>    5.8791    1.0000 </r>
       <r>    6.0725    1.0000 </r>
       <r>    6.1264    1.0000 </r>
       <r>    6.1750    1.0000 </r>
       <r>    6.4954    1.0000 </r>
       <r>    6.8128    1.0000 </r>
       <r>    7.2532    1.0000 </r>
       <r>    7.3756    1.0000 </r>
       <r>    9.7466    0.0000 </r>
       <r>   10.2478    0.0000 </r>
       <r>   11.2693    0.0000 </r>
       <r>   11.7280    0.0000 </r>
      </set>
      <set comment="kpoint 36">
       <r>    2.2219    1.0000 </r>
       <r>    2.4895    1.0000 </r>
       <r>    2.4895    1.0000 </r>
       <r>    2.6271    1.0000 </r>
       <r>    3.6875    1.0000 </r>
       <r>    3.7279    1.0000 </r>
       <r>    3.7279    1.0000 </r>
       <r>    3.8299    1.0000 </r>
       <r>    4.0432    1.0000 </r>
       <r>    4.0921    1.0000 </r>
       <r>    4.0921    1.0000 </r>
       <r>    4.2933    1.0000 </r>
       <r>    5.8468    1.0000 </r>
       <r>    5.9582    1.0000 </r>
       <r>    5.9582    1.0000 </r>
       <r>    5.9762    1.0000 </r>
       <r>    6.6676    1.0000 </r>
       <r>    6.9253    1.0000 </r>
       <r>    6.9253    1.0000 </r>
       <r>    7.1136    1.0000 </r>
       <r>   10.2433    0.0000 </r>
       <r>   10.7445    0.0000 </r>
       <r>   10.7445    0.0000 </r>
       <r>   11.2298    0.0000 </r>
      </set>
      <set comment="kpoint 37">
       <r>   -1.6451    1.0000 </r>
       <r>    1.3103    1.0000 </r>
       <r>    1.3103    1.0000 </r>
       <r>    1.3103    1.0000 </r>
       <r>    1.7800    1.0000 </r>
       <r>    1.7800    1.0000 </r>
       <r>    1.7800    1.0000 </r>
       <r>    4.4480    1.0000 </r>
       <r>    4.7535    1.0000 </r>
       <r>    4.7535    1.0000 </r>
       <r>    6.8807    1.0000 </r>
       <r>    6.8807    1.0000 </r>
       <r>    7.7227    1.0000 </r>
       <r>    7.7227    1.0000 </r>
       <r>    7.7227    1.0000 </r>
       <r>    8.3361    0.9951 </r>
       <r>    8.3361    0.9951 </r>
       <r>    8.3361    0.9951 </r>
       <r>    9.1133    0.0045 </r>
       <r>    9.1133    0.0045 </r>
       <r>    9.1133    0.0045 </r>
       <r>   11.4557    0.0000 </r>
       <r>   11.4557    0.0000 </r>
       <r>   11.4557    0.0000 </r>
      </set>
      <set comment="kpoint 38">
       <r>   -1.4343    1.0000 </r>
       <r>    1.3953    1.0000 </r>
       <r>    1.4486    1.0000 </r>
       <r>    1.4486    1.0000 </r>
       <r>    1.8696    1.0000 </r>
       <r>    1.9364    1.0000 </r>
       <r>    1.9364    1.0000 </r>
       <r>    4.3450    1.0000 </r>
       <r>    4.8341    1.0000 </r>
       <r>    4.8487    1.0000 </r>
       <r>    6.7351    1.0000 </r>
       <r>    6.9619    1.0000 </r>
       <r>    7.1097    1.0000 </r>
       <r>    7.1097    1.0000 </r>
       <r>    7.3061    1.0000 </r>
       <r>    8.1147    0.9998 </r>
       <r>    8.1277    0.9997 </r>
       <r>    8.1277    0.9997 </r>
       <r>    9.0182   -0.0156 </r>
       <r>    9.0760    0.0010 </r>
       <r>    9.0760    0.0010 </r>
       <r>   10.6984    0.0000 </r>
       <r>   12.1774    0.0000 </r>
       <r>   12.1774    0.0000 </r>
      </set>
      <set comment="kpoint 39">
       <r>   -1.1254    1.0000 </r>
       <r>    1.5008    1.0000 </r>
       <r>    1.6496    1.0000 </r>
       <r>    1.6496    1.0000 </r>
       <r>    2.0017    1.0000 </r>
       <r>    2.1633    1.0000 </r>
       <r>    2.1633    1.0000 </r>
       <r>    4.1712    1.0000 </r>
       <r>    4.9757    1.0000 </r>
       <r>    4.9909    1.0000 </r>
       <r>    6.4275    1.0000 </r>
       <r>    6.4275    1.0000 </r>
       <r>    6.5413    1.0000 </r>
       <r>    6.7582    1.0000 </r>
       <r>    7.0804    1.0000 </r>
       <r>    7.8153    1.0000 </r>
       <r>    7.8621    1.0000 </r>
       <r>    7.8621    1.0000 </r>
       <r>    8.8813   -0.0337 </r>
       <r>    9.0302   -0.0109 </r>
       <r>    9.0302   -0.0109 </r>
       <r>    9.8813    0.0000 </r>
       <r>   12.9646    0.0000 </r>
       <r>   12.9646    0.0000 </r>
      </set>
      <set comment="kpoint 40">
       <r>   -0.7283    1.0000 </r>
       <r>    1.5937    1.0000 </r>
       <r>    1.9050    1.0000 </r>
       <r>    1.9050    1.0000 </r>
       <r>    2.1730    1.0000 </r>
       <r>    2.4482    1.0000 </r>
       <r>    2.4482    1.0000 </r>
       <r>    3.9474    1.0000 </r>
       <r>    5.1442    1.0000 </r>
       <r>    5.1792    1.0000 </r>
       <r>    5.7513    1.0000 </r>
       <r>    5.7513    1.0000 </r>
       <r>    6.1612    1.0000 </r>
       <r>    6.3436    1.0000 </r>
       <r>    7.2326    1.0000 </r>
       <r>    7.4656    1.0000 </r>
       <r>    7.5271    1.0000 </r>
       <r>    7.5271    1.0000 </r>
       <r>    8.7089    0.6119 </r>
       <r>    8.9943   -0.0263 </r>
       <r>    8.9943   -0.0263 </r>
       <r>    9.0973    0.0035 </r>
       <r>   13.7384    0.0000 </r>
       <r>   13.7384    0.0000 </r>
      </set>
      <set comment="kpoint 41">
       <r>   -0.2596    1.0000 </r>
       <r>    1.6195    1.0000 </r>
       <r>    2.1995    1.0000 </r>
       <r>    2.1995    1.0000 </r>
       <r>    2.3784    1.0000 </r>
       <r>    2.7707    1.0000 </r>
       <r>    2.7707    1.0000 </r>
       <r>    3.6910    1.0000 </r>
       <r>    5.1118    1.0000 </r>
       <r>    5.1118    1.0000 </r>
       <r>    5.2603    1.0000 </r>
       <r>    5.4120    1.0000 </r>
       <r>    5.6169    1.0000 </r>
       <r>    6.2430    1.0000 </r>
       <r>    7.0907    1.0000 </r>
       <r>    7.1603    1.0000 </r>
       <r>    7.1603    1.0000 </r>
       <r>    7.4134    1.0000 </r>
       <r>    8.3805    0.9984 </r>
       <r>    8.5093    1.0457 </r>
       <r>    8.9708   -0.0375 </r>
       <r>    8.9708   -0.0375 </r>
       <r>   14.4281    0.0000 </r>
       <r>   14.4281    0.0000 </r>
      </set>
      <set comment="kpoint 42">
       <r>    0.2538    1.0000 </r>
       <r>    1.5066    1.0000 </r>
       <r>    2.4962    1.0000 </r>
       <r>    2.4962    1.0000 </r>
       <r>    2.6119    1.0000 </r>
       <r>    3.1044    1.0000 </r>
       <r>    3.1044    1.0000 </r>
       <r>    3.4173    1.0000 </r>
       <r>    4.5326    1.0000 </r>
       <r>    4.5326    1.0000 </r>
       <r>    5.2250    1.0000 </r>
       <r>    5.2341    1.0000 </r>
       <r>    5.6866    1.0000 </r>
       <r>    6.3738    1.0000 </r>
       <r>    6.7114    1.0000 </r>
       <r>    6.8305    1.0000 </r>
       <r>    6.8305    1.0000 </r>
       <r>    7.6170    1.0000 </r>
       <r>    7.7407    1.0000 </r>
       <r>    8.2913    0.9957 </r>
       <r>    8.9574   -0.0433 </r>
       <r>    8.9574   -0.0433 </r>
       <r>   14.9401    0.0000 </r>
       <r>   14.9401    0.0000 </r>
      </set>
      <set comment="kpoint 43">
       <r>    0.7671    1.0000 </r>
       <r>    1.2112    1.0000 </r>
       <r>    2.7055    1.0000 </r>
       <r>    2.7055    1.0000 </r>
       <r>    2.8678    1.0000 </r>
       <r>    3.1393    1.0000 </r>
       <r>    3.4164    1.0000 </r>
       <r>    3.4164    1.0000 </r>
       <r>    4.0689    1.0000 </r>
       <r>    4.0689    1.0000 </r>
       <r>    5.0770    1.0000 </r>
       <r>    5.1115    1.0000 </r>
       <r>    5.9991    1.0000 </r>
       <r>    6.3436    1.0000 </r>
       <r>    6.6276    1.0000 </r>
       <r>    6.6276    1.0000 </r>
       <r>    6.7146    1.0000 </r>
       <r>    7.1819    1.0000 </r>
       <r>    7.8365    1.0000 </r>
       <r>    8.0641    0.9999 </r>
       <r>    8.9514   -0.0456 </r>
       <r>    8.9514   -0.0456 </r>
       <r>   15.1910    0.0000 </r>
       <r>   15.1910    0.0000 </r>
      </set>
      <set comment="kpoint 44">
       <r>   -1.2313    1.0000 </r>
       <r>    1.5322    1.0000 </r>
       <r>    1.5322    1.0000 </r>
       <r>    1.5510    1.0000 </r>
       <r>    2.0253    1.0000 </r>
       <r>    2.0253    1.0000 </r>
       <r>    2.1114    1.0000 </r>
       <r>    4.2841    1.0000 </r>
       <r>    4.8874    1.0000 </r>
       <r>    4.9126    1.0000 </r>
       <r>    6.7134    1.0000 </r>
       <r>    6.7179    1.0000 </r>
       <r>    6.7179    1.0000 </r>
       <r>    6.7287    1.0000 </r>
       <r>    6.9540    1.0000 </r>
       <r>    7.8692    1.0000 </r>
       <r>    7.9174    1.0000 </r>
       <r>    7.9174    1.0000 </r>
       <r>    8.9981   -0.0245 </r>
       <r>    8.9981   -0.0245 </r>
       <r>    9.0137   -0.0175 </r>
       <r>   11.3721    0.0000 </r>
       <r>   11.3721    0.0000 </r>
       <r>   12.7766    0.0000 </r>
      </set>
      <set comment="kpoint 45">
       <r>   -0.9338    1.0000 </r>
       <r>    1.6351    1.0000 </r>
       <r>    1.7110    1.0000 </r>
       <r>    1.7312    1.0000 </r>
       <r>    2.1568    1.0000 </r>
       <r>    2.2512    1.0000 </r>
       <r>    2.3522    1.0000 </r>
       <r>    4.1536    1.0000 </r>
       <r>    4.9981    1.0000 </r>
       <r>    5.0138    1.0000 </r>
       <r>    6.0658    1.0000 </r>
       <r>    6.2077    1.0000 </r>
       <r>    6.2239    1.0000 </r>
       <r>    6.5756    1.0000 </r>
       <r>    7.0704    1.0000 </r>
       <r>    7.6126    1.0000 </r>
       <r>    7.6212    1.0000 </r>
       <r>    7.7124    1.0000 </r>
       <r>    8.8717   -0.0229 </r>
       <r>    8.9235   -0.0516 </r>
       <r>    8.9296   -0.0512 </r>
       <r>   10.5119    0.0000 </r>
       <r>   12.1018    0.0000 </r>
       <r>   13.4764    0.0000 </r>
      </set>
      <set comment="kpoint 46">
       <r>   -0.5516    1.0000 </r>
       <r>    1.7243    1.0000 </r>
       <r>    1.9291    1.0000 </r>
       <r>    1.9852    1.0000 </r>
       <r>    2.3266    1.0000 </r>
       <r>    2.5328    1.0000 </r>
       <r>    2.6357    1.0000 </r>
       <r>    3.9647    1.0000 </r>
       <r>    5.1115    1.0000 </r>
       <r>    5.1730    1.0000 </r>
       <r>    5.4279    1.0000 </r>
       <r>    5.6352    1.0000 </r>
       <r>    5.7015    1.0000 </r>
       <r>    6.4276    1.0000 </r>
       <r>    7.2506    1.0000 </r>
       <r>    7.2757    1.0000 </r>
       <r>    7.3291    1.0000 </r>
       <r>    7.4489    1.0000 </r>
       <r>    8.6774    0.7650 </r>
       <r>    8.8463    0.0210 </r>
       <r>    8.8488    0.0157 </r>
       <r>    9.7042    0.0000 </r>
       <r>   12.8111    0.0000 </r>
       <r>   14.1856    0.0000 </r>
      </set>
      <set comment="kpoint 47">
       <r>   -0.1002    1.0000 </r>
       <r>    1.7456    1.0000 </r>
       <r>    2.2001    1.0000 </r>
       <r>    2.2823    1.0000 </r>
       <r>    2.5266    1.0000 </r>
       <r>    2.8430    1.0000 </r>
       <r>    2.9261    1.0000 </r>
       <r>    3.7379    1.0000 </r>
       <r>    4.8390    1.0000 </r>
       <r>    5.0713    1.0000 </r>
       <r>    5.1558    1.0000 </r>
       <r>    5.2409    1.0000 </r>
       <r>    5.3791    1.0000 </r>
       <r>    6.3873    1.0000 </r>
       <r>    6.9120    1.0000 </r>
       <r>    7.0223    1.0000 </r>
       <r>    7.1388    1.0000 </r>
       <r>    7.4692    1.0000 </r>
       <r>    8.3695    0.9971 </r>
       <r>    8.7874    0.2162 </r>
       <r>    8.7874    0.2160 </r>
       <r>    9.0371   -0.0085 </r>
       <r>   13.4511    0.0000 </r>
       <r>   14.7852    0.0000 </r>
      </set>
      <set comment="kpoint 48">
       <r>    0.3951    1.0000 </r>
       <r>    1.6276    1.0000 </r>
       <r>    2.5070    1.0000 </r>
       <r>    2.5951    1.0000 </r>
       <r>    2.7485    1.0000 </r>
       <r>    3.1288    1.0000 </r>
       <r>    3.1655    1.0000 </r>
       <r>    3.4904    1.0000 </r>
       <r>    4.3429    1.0000 </r>
       <r>    4.5624    1.0000 </r>
       <r>    4.9406    1.0000 </r>
       <r>    5.0756    1.0000 </r>
       <r>    5.6208    1.0000 </r>
       <r>    6.5522    1.0000 </r>
       <r>    6.5524    1.0000 </r>
       <r>    6.7467    1.0000 </r>
       <r>    6.8366    1.0000 </r>
       <r>    7.7151    1.0000 </r>
       <r>    7.8985    1.0000 </r>
       <r>    8.5860    1.0263 </r>
       <r>    8.7492    0.4006 </r>
       <r>    8.7503    0.3949 </r>
       <r>   13.9852    0.0000 </r>
       <r>   14.9349    0.0000 </r>
      </set>
      <set comment="kpoint 49">
       <r>    0.8935    1.0000 </r>
       <r>    1.3305    1.0000 </r>
       <r>    2.7875    1.0000 </r>
       <r>    2.8348    1.0000 </r>
       <r>    2.9866    1.0000 </r>
       <r>    3.2363    1.0000 </r>
       <r>    3.2837    1.0000 </r>
       <r>    3.2867    1.0000 </r>
       <r>    4.0650    1.0000 </r>
       <r>    4.1777    1.0000 </r>
       <r>    4.8530    1.0000 </r>
       <r>    4.9338    1.0000 </r>
       <r>    5.8989    1.0000 </r>
       <r>    6.2113    1.0000 </r>
       <r>    6.5912    1.0000 </r>
       <r>    6.6264    1.0000 </r>
       <r>    6.9021    1.0000 </r>
       <r>    7.3710    1.0000 </r>
       <r>    7.9807    1.0000 </r>
       <r>    8.2643    0.9967 </r>
       <r>    8.7318    0.4919 </r>
       <r>    8.7323    0.4889 </r>
       <r>   14.4004    0.0000 </r>
       <r>   14.7158    0.0000 </r>
      </set>
      <set comment="kpoint 50">
       <r>   -0.6534    1.0000 </r>
       <r>    1.8254    1.0000 </r>
       <r>    1.8296    1.0000 </r>
       <r>    1.8296    1.0000 </r>
       <r>    2.3823    1.0000 </r>
       <r>    2.3823    1.0000 </r>
       <r>    2.5971    1.0000 </r>
       <r>    4.0876    1.0000 </r>
       <r>    5.0502    1.0000 </r>
       <r>    5.0698    1.0000 </r>
       <r>    5.6282    1.0000 </r>
       <r>    5.6282    1.0000 </r>
       <r>    5.8679    1.0000 </r>
       <r>    6.5290    1.0000 </r>
       <r>    7.1687    1.0000 </r>
       <r>    7.3471    1.0000 </r>
       <r>    7.4576    1.0000 </r>
       <r>    7.4576    1.0000 </r>
       <r>    8.7740    0.2770 </r>
       <r>    8.7740    0.2770 </r>
       <r>    8.8085    0.1315 </r>
       <r>   11.2035    0.0000 </r>
       <r>   11.2035    0.0000 </r>
       <r>   14.0972    0.0000 </r>
      </set>
      <set comment="kpoint 51">
       <r>   -0.2936    1.0000 </r>
       <r>    1.9109    1.0000 </r>
       <r>    1.9976    1.0000 </r>
       <r>    2.0774    1.0000 </r>
       <r>    2.5517    1.0000 </r>
       <r>    2.6627    1.0000 </r>
       <r>    2.8683    1.0000 </r>
       <r>    3.9624    1.0000 </r>
       <r>    5.0485    1.0000 </r>
       <r>    5.0840    1.0000 </r>
       <r>    5.1842    1.0000 </r>
       <r>    5.1972    1.0000 </r>
       <r>    5.4445    1.0000 </r>
       <r>    6.4421    1.0000 </r>
       <r>    7.0857    1.0000 </r>
       <r>    7.1331    1.0000 </r>
       <r>    7.2603    1.0000 </r>
       <r>    7.3753    1.0000 </r>
       <r>    8.5564    1.0486 </r>
[...]
       <r>    9.3704    0.0001 </r>
       <r>    9.9238    0.0000 </r>
       <r>    9.9238    0.0000 </r>
       <r>   10.3791    0.0000 </r>
      </set>
      <set comment="kpoint 117">
       <r>    0.8748    1.0000 </r>
       <r>    1.1654    1.0000 </r>
       <r>    1.1654    1.0000 </r>
       <r>    1.1654    1.0000 </r>
       <r>    4.2975    1.0000 </r>
       <r>    4.2975    1.0000 </r>
       <r>    4.2975    1.0000 </r>
       <r>    4.6359    1.0000 </r>
       <r>    4.6359    1.0000 </r>
       <r>    4.8081    1.0000 </r>
       <r>    4.8081    1.0000 </r>
       <r>    4.8081    1.0000 </r>
       <r>    6.5353    1.0000 </r>
       <r>    6.5353    1.0000 </r>
       <r>    6.5353    1.0000 </r>
       <r>    6.7457    1.0000 </r>
       <r>    8.4332    1.0120 </r>
       <r>    8.4332    1.0120 </r>
       <r>    8.8025    0.1541 </r>
       <r>    8.8025    0.1541 </r>
       <r>    8.8025    0.1541 </r>
       <r>   10.2664    0.0000 </r>
       <r>   10.2664    0.0000 </r>
       <r>   10.2664    0.0000 </r>
      </set>
      <set comment="kpoint 118">
       <r>    0.9119    1.0000 </r>
       <r>    1.0094    1.0000 </r>
       <r>    1.1027    1.0000 </r>
       <r>    1.1027    1.0000 </r>
       <r>    4.3432    1.0000 </r>
       <r>    4.3432    1.0000 </r>
       <r>    4.4467    1.0000 </r>
       <r>    4.5619    1.0000 </r>
       <r>    4.6338    1.0000 </r>
       <r>    4.6918    1.0000 </r>
       <r>    4.7339    1.0000 </r>
       <r>    4.7339    1.0000 </r>
       <r>    6.8473    1.0000 </r>
       <r>    6.8489    1.0000 </r>
       <r>    6.8489    1.0000 </r>
       <r>    6.9936    1.0000 </r>
       <r>    8.6490    0.8790 </r>
       <r>    8.7023    0.6456 </r>
       <r>    8.7492    0.4004 </r>
       <r>    8.7492    0.4004 </r>
       <r>    8.7752    0.2713 </r>
       <r>    9.3958    0.0001 </r>
       <r>   10.2181    0.0000 </r>
       <r>   10.2181    0.0000 </r>
      </set>
      <set comment="kpoint 119">
       <r>    0.9106    1.0000 </r>
       <r>    0.9745    1.0000 </r>
       <r>    0.9745    1.0000 </r>
       <r>    1.0057    1.0000 </r>
       <r>    4.4280    1.0000 </r>
       <r>    4.4630    1.0000 </r>
       <r>    4.4630    1.0000 </r>
       <r>    4.5460    1.0000 </r>
       <r>    4.5888    1.0000 </r>
       <r>    4.6312    1.0000 </r>
       <r>    4.6312    1.0000 </r>
       <r>    4.6452    1.0000 </r>
       <r>    7.2099    1.0000 </r>
       <r>    7.2323    1.0000 </r>
       <r>    7.2323    1.0000 </r>
       <r>    7.3654    1.0000 </r>
       <r>    8.5952    1.0139 </r>
       <r>    8.7170    0.5695 </r>
       <r>    8.7170    0.5695 </r>
       <r>    8.7226    0.5405 </r>
       <r>    9.0003   -0.0235 </r>
       <r>    9.5147    0.0000 </r>
       <r>    9.5147    0.0000 </r>
       <r>    9.8086    0.0000 </r>
      </set>
      <set comment="kpoint 120">
       <r>    0.8736    1.0000 </r>
       <r>    0.9055    1.0000 </r>
       <r>    0.9055    1.0000 </r>
       <r>    0.9055    1.0000 </r>
       <r>    4.5069    1.0000 </r>
       <r>    4.5069    1.0000 </r>
       <r>    4.5069    1.0000 </r>
       <r>    4.5470    1.0000 </r>
       <r>    4.5470    1.0000 </r>
       <r>    4.5660    1.0000 </r>
       <r>    4.5660    1.0000 </r>
       <r>    4.5660    1.0000 </r>
       <r>    7.7337    1.0000 </r>
       <r>    7.7337    1.0000 </r>
       <r>    7.7337    1.0000 </r>
       <r>    7.9231    1.0000 </r>
       <r>    8.7390    0.4539 </r>
       <r>    8.7390    0.4539 </r>
       <r>    8.7825    0.2376 </r>
       <r>    8.7825    0.2376 </r>
       <r>    8.7825    0.2376 </r>
       <r>    9.1552    0.0047 </r>
       <r>    9.1552    0.0047 </r>
       <r>    9.1552    0.0047 </r>
      </set>
     </set>
    </set>
   </array>
  </eigenvalues>
  <separator name="orbital magnetization" >
   <v name="MAGDIPOLOUT">      0.00000000      0.00000000      0.00000000</v>
  </separator>
  <dos>
   <i name="efermi">      8.73023684 </i>
   <total>
    <array>
     <dimension dim="1">gridpoints</dimension>
     <dimension dim="2">spin</dimension>
     <field>energy</field>
     <field>total</field>
     <field>integrated</field>
     <set>
      <set comment="spin 1">
       <r>    -3.9708     0.0000     0.0000 </r>
       <r>    -3.8975     0.0000     0.0000 </r>
       <r>    -3.8243     0.0000     0.0000 </r>
       <r>    -3.7510     0.0000     0.0000 </r>
       <r>    -3.6777     0.0000     0.0000 </r>
       <r>    -3.6044     0.0000     0.0000 </r>
       <r>    -3.5311     0.0000     0.0000 </r>
       <r>    -3.4578     0.0000     0.0000 </r>
       <r>    -3.3845     0.0000     0.0000 </r>
       <r>    -3.3112     0.0000     0.0000 </r>
       <r>    -3.2380     0.0000     0.0000 </r>
       <r>    -3.1647     0.0000     0.0000 </r>
       <r>    -3.0914     0.0000     0.0000 </r>
       <r>    -3.0181     0.0000     0.0000 </r>
       <r>    -2.9448     0.0000     0.0000 </r>
       <r>    -2.8715     0.0000     0.0000 </r>
       <r>    -2.7982     0.0000     0.0000 </r>
       <r>    -2.7249     0.0000     0.0000 </r>
       <r>    -2.6516     0.0000     0.0000 </r>
       <r>    -2.5784     0.0000     0.0000 </r>
       <r>    -2.5051     0.0001     0.0000 </r>
       <r>    -2.4318     0.0002     0.0000 </r>
       <r>    -2.3585     0.0004     0.0000 </r>
       <r>    -2.2852    -0.0000     0.0000 </r>
       <r>    -2.2119    -0.0016    -0.0001 </r>
       <r>    -2.1386    -0.0033    -0.0003 </r>
       <r>    -2.0653     0.0008    -0.0003 </r>
       <r>    -1.9920     0.0185     0.0011 </r>
       <r>    -1.9188     0.0496     0.0047 </r>
       <r>    -1.8455     0.0819     0.0107 </r>
       <r>    -1.7722     0.1048     0.0184 </r>
       <r>    -1.6989     0.1248     0.0276 </r>
       <r>    -1.6256     0.1514     0.0387 </r>
       <r>    -1.5523     0.1722     0.0513 </r>
       <r>    -1.4790     0.1702     0.0637 </r>
       <r>    -1.4057     0.1667     0.0760 </r>
       <r>    -1.3325     0.1987     0.0905 </r>
       <r>    -1.2592     0.2478     0.1087 </r>
       <r>    -1.1859     0.2575     0.1276 </r>
       <r>    -1.1126     0.2299     0.1444 </r>
       <r>    -1.0393     0.2251     0.1609 </r>
       <r>    -0.9660     0.2597     0.1799 </r>
       <r>    -0.8927     0.2945     0.2015 </r>
       <r>    -0.8194     0.3151     0.2246 </r>
       <r>    -0.7461     0.3383     0.2494 </r>
       <r>    -0.6729     0.3540     0.2754 </r>
       <r>    -0.5996     0.3345     0.2999 </r>
       <r>    -0.5263     0.2968     0.3216 </r>
       <r>    -0.4530     0.3099     0.3443 </r>
       <r>    -0.3797     0.4005     0.3737 </r>
       <r>    -0.3064     0.4911     0.4097 </r>
       <r>    -0.2331     0.4982     0.4462 </r>
       <r>    -0.1598     0.4341     0.4780 </r>
       <r>    -0.0865     0.3739     0.5054 </r>
       <r>    -0.0133     0.3941     0.5343 </r>
       <r>     0.0600     0.5054     0.5713 </r>
       <r>     0.1333     0.6052     0.6157 </r>
       <r>     0.2066     0.5982     0.6595 </r>
       <r>     0.2799     0.5487     0.6997 </r>
       <r>     0.3532     0.5812     0.7423 </r>
       <r>     0.4265     0.6760     0.7919 </r>
       <r>     0.4998     0.7166     0.8444 </r>
       <r>     0.5730     0.6857     0.8947 </r>
       <r>     0.6463     0.6811     0.9446 </r>
       <r>     0.7196     0.8124     1.0041 </r>
       <r>     0.7929     1.1056     1.0851 </r>
       <r>     0.8662     1.4309     1.1900 </r>
       <r>     0.9395     1.6545     1.3113 </r>
       <r>     1.0128     1.8634     1.4478 </r>
       <r>     1.0861     2.1744     1.6072 </r>
       <r>     1.1594     2.4751     1.7886 </r>
       <r>     1.2326     2.6554     1.9832 </r>
       <r>     1.3059     2.8178     2.1897 </r>
       <r>     1.3792     3.0922     2.4163 </r>
       <r>     1.4525     3.4671     2.6704 </r>
       <r>     1.5258     3.8311     2.9512 </r>
       <r>     1.5991     4.1518     3.2555 </r>
       <r>     1.6724     4.5045     3.5856 </r>
       <r>     1.7457     4.8702     3.9426 </r>
       <r>     1.8190     5.2043     4.3240 </r>
       <r>     1.8922     5.5459     4.7304 </r>
       <r>     1.9655     5.7523     5.1520 </r>
       <r>     2.0388     5.6246     5.5642 </r>
       <r>     2.1121     5.3779     5.9583 </r>
       <r>     2.1854     5.3245     6.3486 </r>
       <r>     2.2587     5.2879     6.7361 </r>
       <r>     2.3320     5.0054     7.1030 </r>
       <r>     2.4053     4.7329     7.4498 </r>
       <r>     2.4785     4.7929     7.8011 </r>
       <r>     2.5518     4.9525     8.1641 </r>
       <r>     2.6251     4.8502     8.5195 </r>
       <r>     2.6984     4.5912     8.8560 </r>
       <r>     2.7717     4.3831     9.1772 </r>
       <r>     2.8450     4.0580     9.4746 </r>
       <r>     2.9183     3.4880     9.7303 </r>
       <r>     2.9916     3.0654     9.9549 </r>
       <r>     3.0649     3.2454    10.1928 </r>
       <r>     3.1381     3.8692    10.4763 </r>
       <r>     3.2114     4.3928    10.7983 </r>
       <r>     3.2847     4.6043    11.1357 </r>
       <r>     3.3580     4.6970    11.4800 </r>
       <r>     3.4313     4.8471    11.8352 </r>
       <r>     3.5046     5.0467    12.2051 </r>
       <r>     3.5779     5.1701    12.5840 </r>
       <r>     3.6512     5.1432    12.9609 </r>
       <r>     3.7245     5.0479    13.3309 </r>
       <r>     3.7977     4.9630    13.6946 </r>
       <r>     3.8710     4.9137    14.0547 </r>
       <r>     3.9443     5.0155    14.4223 </r>
       <r>     4.0176     5.3688    14.8158 </r>
       <r>     4.0909     5.7471    15.2370 </r>
       <r>     4.1642     5.7585    15.6590 </r>
       <r>     4.2375     5.4805    16.0606 </r>
       <r>     4.3108     5.3680    16.4541 </r>
       <r>     4.3840     5.5177    16.8584 </r>
       <r>     4.4573     5.7795    17.2820 </r>
       <r>     4.5306     6.2523    17.7402 </r>
       <r>     4.6039     6.8888    18.2451 </r>
       <r>     4.6772     7.2233    18.7745 </r>
       <r>     4.7505     7.1201    19.2963 </r>
       <r>     4.8238     7.1298    19.8189 </r>
       <r>     4.8971     7.7059    20.3836 </r>
       <r>     4.9704     8.5629    21.0112 </r>
       <r>     5.0436     9.0052    21.6711 </r>
       <r>     5.1169     8.6487    22.3050 </r>
       <r>     5.1902     7.6718    22.8672 </r>
       <r>     5.2635     6.4742    23.3417 </r>
       <r>     5.3368     5.4233    23.7392 </r>
       <r>     5.4101     4.8110    24.0918 </r>
       <r>     5.4834     4.6142    24.4300 </r>
       <r>     5.5567     4.5078    24.7603 </r>
       <r>     5.6300     4.3326    25.0779 </r>
       <r>     5.7032     4.2528    25.3895 </r>
       <r>     5.7765     4.3819    25.7107 </r>
       <r>     5.8498     4.4714    26.0384 </r>
       <r>     5.9231     4.2297    26.3484 </r>
       <r>     5.9964     3.8748    26.6323 </r>
       <r>     6.0697     3.9006    26.9182 </r>
       <r>     6.1430     4.3143    27.2344 </r>
       <r>     6.2163     4.6606    27.5760 </r>
       <r>     6.2895     4.7909    27.9271 </r>
       <r>     6.3628     4.9843    28.2924 </r>
       <r>     6.4361     5.3695    28.6859 </r>
       <r>     6.5094     5.7880    29.1101 </r>
       <r>     6.5827     5.9914    29.5492 </r>
       <r>     6.6560     5.7911    29.9736 </r>
       <r>     6.7293     5.3776    30.3677 </r>
       <r>     6.8026     5.1662    30.7463 </r>
       <r>     6.8759     5.1119    31.1210 </r>
       <r>     6.9491     4.7973    31.4726 </r>
       <r>     7.0224     4.2192    31.7818 </r>
       <r>     7.0957     3.8930    32.0671 </r>
       <r>     7.1690     4.1498    32.3712 </r>
       <r>     7.2423     4.6864    32.7147 </r>
       <r>     7.3156     4.8603    33.0709 </r>
       <r>     7.3889     4.3578    33.3903 </r>
       <r>     7.4622     3.6249    33.6559 </r>
       <r>     7.5355     3.4427    33.9082 </r>
       <r>     7.6087     3.9163    34.1953 </r>
       <r>     7.6820     4.3470    34.5139 </r>
       <r>     7.7553     4.2742    34.8271 </r>
       <r>     7.8286     4.0078    35.1208 </r>
       <r>     7.9019     3.9853    35.4129 </r>
       <r>     7.9752     4.1632    35.7180 </r>
       <r>     8.0485     4.2332    36.0283 </r>
       <r>     8.1218     4.1698    36.3339 </r>
       <r>     8.1950     4.2832    36.6478 </r>
       <r>     8.2683     4.7026    36.9924 </r>
       <r>     8.3416     5.2154    37.3747 </r>
       <r>     8.4149     5.7172    37.7937 </r>
       <r>     8.4882     6.2828    38.2541 </r>
       <r>     8.5615     6.8229    38.7542 </r>
       <r>     8.6348     7.2212    39.2834 </r>
       <r>     8.7081     7.4973    39.8328 </r>
       <r>     8.7814     7.4080    40.3758 </r>
       <r>     8.8546     6.5465    40.8556 </r>
       <r>     8.9279     5.1758    41.2349 </r>
       <r>     9.0012     4.1821    41.5414 </r>
       <r>     9.0745     3.9136    41.8282 </r>
       <r>     9.1478     3.7710    42.1046 </r>
       <r>     9.2211     3.1166    42.3330 </r>
       <r>     9.2944     1.9974    42.4794 </r>
       <r>     9.3677     0.9565    42.5495 </r>
       <r>     9.4409     0.5017    42.5862 </r>
       <r>     9.5142     0.7155    42.6387 </r>
       <r>     9.5875     1.2740    42.7320 </r>
       <r>     9.6608     1.7224    42.8583 </r>
       <r>     9.7341     1.6989    42.9828 </r>
       <r>     9.8074     1.1931    43.0702 </r>
       <r>     9.8807     0.6116    43.1150 </r>
       <r>     9.9540     0.3344    43.1395 </r>
       <r>    10.0273     0.3958    43.1686 </r>
       <r>    10.1005     0.7313    43.2222 </r>
       <r>    10.1738     1.2970    43.3172 </r>
       <r>    10.2471     1.7946    43.4487 </r>
       <r>    10.3204     1.7831    43.5794 </r>
       <r>    10.3937     1.2707    43.6725 </r>
       <r>    10.4670     0.7565    43.7280 </r>
       <r>    10.5403     0.6044    43.7723 </r>
       <r>    10.6136     0.7533    43.8275 </r>
       <r>    10.6869     0.9538    43.8974 </r>
       <r>    10.7601     1.0373    43.9734 </r>
       <r>    10.8334     1.0506    44.0504 </r>
       <r>    10.9067     1.1274    44.1330 </r>
       <r>    10.9800     1.2137    44.2220 </r>
       <r>    11.0533     1.1566    44.3068 </r>
       <r>    11.1266     1.0030    44.3803 </r>
       <r>    11.1999     0.9173    44.4475 </r>
       <r>    11.2732     0.9708    44.5186 </r>
       <r>    11.3464     1.1639    44.6039 </r>
       <r>    11.4197     1.3491    44.7028 </r>
       <r>    11.4930     1.2414    44.7938 </r>
       <r>    11.5663     0.8567    44.8566 </r>
       <r>    11.6396     0.6178    44.9019 </r>
       <r>    11.7129     0.7876    44.9596 </r>
       <r>    11.7862     1.1500    45.0439 </r>
       <r>    11.8595     1.3271    45.1411 </r>
       <r>    11.9328     1.1741    45.2272 </r>
       <r>    12.0060     0.8784    45.2916 </r>
       <r>    12.0793     0.7506    45.3466 </r>
       <r>    12.1526     0.8824    45.4112 </r>
       <r>    12.2259     1.0904    45.4912 </r>
       <r>    12.2992     1.1832    45.5779 </r>
       <r>    12.3725     1.1274    45.6605 </r>
       <r>    12.4458     1.0036    45.7340 </r>
       <r>    12.5191     0.9037    45.8003 </r>
       <r>    12.5924     0.8686    45.8639 </r>
       <r>    12.6656     0.9035    45.9302 </r>
       <r>    12.7389     0.9846    46.0023 </r>
       <r>    12.8122     1.0522    46.0794 </r>
       <r>    12.8855     1.0476    46.1562 </r>
       <r>    12.9588     0.9354    46.2248 </r>
       <r>    13.0321     0.7333    46.2785 </r>
       <r>    13.1054     0.5880    46.3216 </r>
       <r>    13.1787     0.6820    46.3716 </r>
       <r>    13.2519     0.9529    46.4414 </r>
       <r>    13.3252     1.1259    46.5239 </r>
       <r>    13.3985     1.1075    46.6051 </r>
       <r>    13.4718     1.0119    46.6793 </r>
       <r>    13.5451     0.8812    46.7438 </r>
       <r>    13.6184     0.7626    46.7997 </r>
       <r>    13.6917     0.7741    46.8565 </r>
       <r>    13.7650     0.8542    46.9191 </r>
       <r>    13.8383     0.8076    46.9783 </r>
       <r>    13.9115     0.6123    47.0231 </r>
       <r>    13.9848     0.4411    47.0555 </r>
       <r>    14.0581     0.5016    47.0922 </r>
       <r>    14.1314     0.8346    47.1534 </r>
       <r>    14.2047     1.1466    47.2374 </r>
       <r>    14.2780     1.1058    47.3185 </r>
       <r>    14.3513     0.8163    47.3783 </r>
       <r>    14.4246     0.6081    47.4229 </r>
       <r>    14.4979     0.5462    47.4629 </r>
       <r>    14.5711     0.5248    47.5014 </r>
       <r>    14.6444     0.5444    47.5412 </r>
       <r>    14.7177     0.6353    47.5878 </r>
       <r>    14.7910     0.7389    47.6420 </r>
       <r>    14.8643     0.7684    47.6983 </r>
       <r>    14.9376     0.6824    47.7483 </r>
       <r>    15.0109     0.5205    47.7864 </r>
       <r>    15.0842     0.4035    47.8160 </r>
       <r>    15.1574     0.3971    47.8451 </r>
       <r>    15.2307     0.4037    47.8747 </r>
       <r>    15.3040     0.3198    47.8981 </r>
       <r>    15.3773     0.1976    47.9126 </r>
       <r>    15.4506     0.1322    47.9223 </r>
       <r>    15.5239     0.1281    47.9317 </r>
       <r>    15.5972     0.1437    47.9422 </r>
       <r>    15.6705     0.1545    47.9535 </r>
       <r>    15.7438     0.1448    47.9642 </r>
       <r>    15.8170     0.1069    47.9720 </r>
       <r>    15.8903     0.0717    47.9772 </r>
       <r>    15.9636     0.0810    47.9832 </r>
       <r>    16.0369     0.1093    47.9912 </r>
       <r>    16.1102     0.0942    47.9981 </r>
       <r>    16.1835     0.0392    48.0010 </r>
       <r>    16.2568    -0.0019    48.0008 </r>
       <r>    16.3301    -0.0095    48.0001 </r>
       <r>    16.4034    -0.0033    47.9999 </r>
       <r>    16.4766     0.0004    47.9999 </r>
       <r>    16.5499     0.0007    48.0000 </r>
       <r>    16.6232     0.0003    48.0000 </r>
       <r>    16.6965     0.0001    48.0000 </r>
       <r>    16.7698     0.0000    48.0000 </r>
       <r>    16.8431     0.0000    48.0000 </r>
       <r>    16.9164     0.0000    48.0000 </r>
       <r>    16.9897     0.0000    48.0000 </r>
       <r>    17.0629     0.0000    48.0000 </r>
       <r>    17.1362     0.0000    48.0000 </r>
       <r>    17.2095     0.0000    48.0000 </r>
       <r>    17.2828     0.0000    48.0000 </r>
       <r>    17.3561     0.0000    48.0000 </r>
       <r>    17.4294     0.0000    48.0000 </r>
       <r>    17.5027     0.0000    48.0000 </r>
       <r>    17.5760     0.0000    48.0000 </r>
       <r>    17.6493     0.0000    48.0000 </r>
       <r>    17.7225     0.0000    48.0000 </r>
       <r>    17.7958     0.0000    48.0000 </r>
       <r>    17.8691     0.0000    48.0000 </r>
       <r>    17.9424     0.0000    48.0000 </r>
       <r>    18.0157     0.0000    48.0000 </r>
      </set>
     </set>
    </array>
   </total>
  </dos>
 </calculation>
 <structure name="finalpos" >
  <crystal>
   <varray name="basis" >
    <v>       3.86000000       0.00000000       0.00000000 </v>
    <v>       0.00000000       3.86000000       0.00000000 </v>
    <v>       0.00000000       0.00000000       3.86000000 </v>
   </varray>
   <i name="volume">     57.51245600 </i>
   <varray name="rec_basis" >
    <v>       0.25906736       0.00000000       0.00000000 </v>
    <v>       0.00000000       0.25906736       0.00000000 </v>
    <v>       0.00000000       0.00000000       0.25906736 </v>
   </varray>
  </crystal>
  <varray name="positions" >
   <v>       0.00000000       0.00000000       0.00000000 </v>
   <v>       0.00000000       0.50000000       0.50000000 </v>
   <v>       0.50000000       0.00000000       0.50000000 </v>
   <v>       0.50000000       0.50000000       0.00000000 </v>
  </varray>
 </structure>
</modeling>
