This job started on
Tue Jan 22 15:09:48 CET 2019
 running on   16 total cores
 distrk:  each k-point on   16 cores,    1 groups
 distr:  one band on    8 cores,    2 groups
 using from now: INCAR     
 vasp.5.4.4.18Apr17-6-g9f103f2a35 (build Apr 17 2018 18:25:23) complex          
  
 POSCAR found :  1 types and       4 ions

 ----------------------------------------------------------------------------- 
|                                                                             |
|  ADVICE TO THIS USER RUNNING 'VASP/VAMP'   (HEAR YOUR MASTER'S VOICE ...):  |
|                                                                             |
|      You enforced a specific xc-type in the INCAR file,                     |
|      a different type was found on the POTCAR file                          |
|          I HOPE YOU KNOW, WHAT YOU ARE  DOING                               |
|                                                                             |
 ----------------------------------------------------------------------------- 

 LDA part: xc-table for Ceperly-Alder, standard interpolation
 POSCAR found :  1 types and       4 ions
 POSCAR, INCAR and KPOINTS ok, starting setup
 FFT: planning ...
 WAVECAR not read
 entering main loop
       N       E                     dE             d eps       ncg     rms          rms(c)
DAV:   1     0.442563871516E+03    0.44256E+03   -0.17230E+04 10592   0.150E+03
DAV:   2     0.390608967896E+01   -0.43866E+03   -0.42599E+03 10600   0.519E+02
DAV:   3    -0.251501373644E+02   -0.29056E+02   -0.28181E+02 14832   0.121E+02
DAV:   4    -0.260146046785E+02   -0.86447E+00   -0.85940E+00 11344   0.274E+01
DAV:   5    -0.260386571217E+02   -0.24052E-01   -0.24044E-01 12848   0.301E+00    0.769E+00
DAV:   6    -0.245323219611E+02    0.15063E+01   -0.36215E+00 12944   0.213E+01    0.222E+00
DAV:   7    -0.243933049707E+02    0.13902E+00   -0.45113E-01 15872   0.673E+00    0.544E-01
DAV:   8    -0.243779382449E+02    0.15367E-01   -0.18878E-02 11064   0.174E+00    0.104E-01
DAV:   9    -0.243776000024E+02    0.33824E-03   -0.18437E-03 13952   0.471E-01    0.230E-02
DAV:  10    -0.243776192836E+02   -0.19281E-04   -0.45723E-05 11728   0.384E-02    0.370E-03
DAV:  11    -0.243776218670E+02   -0.25834E-05   -0.14270E-06  8648   0.120E-02    0.715E-04
DAV:  12    -0.243776216969E+02    0.17009E-06   -0.25498E-07  5768   0.401E-03
   1 F= -.24377622E+02 E0= -.24376366E+02  d E =-.243776E+02
 curvature:   0.00 expect dE= 0.000E+00 dE for cont linesearch  0.000E+00
 trial: gam= 0.00000 g(F)=  0.175E-62 g(S)=  0.000E+00 ort = 0.000E+00 (trialstep = 0.100E+01)
 search vector abs. value=  0.100E-09
 reached required accuracy - stopping structural energy minimisation
 writing wavefunctions
This job finished on
Tue Jan 22 15:10:21 CET 2019
