<?xml version="1.0" encoding="ISO-8859-1"?>
<modeling>
 <generator>
  <i name="program" type="string">vasp </i>
  <i name="version" type="string">5.4.4.18Apr17-6-g9f103f2a35  </i>
  <i name="subversion" type="string">(build Apr 17 2018 18:25:23) complex            parallel </i>
  <i name="platform" type="string">LinuxIFC </i>
  <i name="date" type="string">2019 01 22 </i>
  <i name="time" type="string">15:09:49 </i>
 </generator>
 <incar>
  <i type="string" name="SYSTEM"> Pt bulk calculation</i>
  <i type="int" name="ISTART">     0</i>
  <i type="string" name="PREC">normal</i>
  <i type="string" name="ALGO"> NORMAL</i>
  <i type="int" name="ICHARG">     2</i>
  <i type="int" name="INIWAV">     1</i>
  <i type="int" name="NELMIN">    10</i>
  <i type="int" name="IBRION">     2</i>
  <i name="EDIFF">      0.00000100</i>
  <i name="EDIFFG">     -0.02000000</i>
  <i type="int" name="NSW">    10</i>
  <i name="ENCUT">    450.00000000</i>
  <i name="POTIM">      0.20000000</i>
  <i type="int" name="ISMEAR">     2</i>
  <i name="SIGMA">      0.20000000</i>
  <v type="int" name="KPOINT_BSE">    -1     0     0     0</v>
  <i type="string" name="GGA"> 91</i>
 </incar>
 <structure name="primitive_cell" >
  <crystal>
   <varray name="basis" >
    <v>       1.97500000       1.97500000      -0.00000000 </v>
    <v>       1.97500000       0.00000000      -1.97500000 </v>
    <v>       0.00000000       1.97500000      -1.97500000 </v>
   </varray>
   <i name="volume">     15.40746875 </i>
   <varray name="rec_basis" >
    <v>       0.25316456       0.25316456       0.25316456 </v>
    <v>       0.25316456      -0.25316456      -0.25316456 </v>
    <v>      -0.25316456       0.25316456      -0.25316456 </v>
   </varray>
  </crystal>
  <varray name="positions" >
   <v>       0.00000000       0.00000000       0.00000000 </v>
  </varray>
 </structure>
 <varray name="primitive_index" >
  <v type="int" >        1 </v>
 </varray>
 <kpoints>
  <generation param="Monkhorst-Pack">
   <v type="int" name="divisions">      20       20       20 </v>
   <v name="usershift">      0.00000000       0.00000000       0.00000000 </v>
   <v name="genvec1">      0.05000000       0.00000000       0.00000000 </v>
   <v name="genvec2">      0.00000000       0.05000000       0.00000000 </v>
   <v name="genvec3">      0.00000000       0.00000000       0.05000000 </v>
   <v name="shift">      0.50000000       0.50000000       0.50000000 </v>
  </generation>
  <varray name="kpointlist" >
   <v>       0.02500000       0.02500000       0.02500000 </v>
   <v>       0.07500000       0.02500000       0.02500000 </v>
   <v>       0.12500000       0.02500000       0.02500000 </v>
   <v>       0.17500000       0.02500000       0.02500000 </v>
   <v>       0.22500000       0.02500000       0.02500000 </v>
   <v>       0.27500000       0.02500000       0.02500000 </v>
   <v>       0.32500000       0.02500000       0.02500000 </v>
   <v>       0.37500000       0.02500000       0.02500000 </v>
   <v>       0.42500000       0.02500000       0.02500000 </v>
   <v>       0.47500000       0.02500000       0.02500000 </v>
   <v>       0.07500000       0.07500000       0.02500000 </v>
   <v>       0.12500000       0.07500000       0.02500000 </v>
   <v>       0.17500000       0.07500000       0.02500000 </v>
   <v>       0.22500000       0.07500000       0.02500000 </v>
   <v>       0.27500000       0.07500000       0.02500000 </v>
   <v>       0.32500000       0.07500000       0.02500000 </v>
   <v>       0.37500000       0.07500000       0.02500000 </v>
   <v>       0.42500000       0.07500000       0.02500000 </v>
   <v>       0.47500000       0.07500000       0.02500000 </v>
   <v>       0.12500000       0.12500000       0.02500000 </v>
   <v>       0.17500000       0.12500000       0.02500000 </v>
   <v>       0.22500000       0.12500000       0.02500000 </v>
   <v>       0.27500000       0.12500000       0.02500000 </v>
   <v>       0.32500000       0.12500000       0.02500000 </v>
   <v>       0.37500000       0.12500000       0.02500000 </v>
   <v>       0.42500000       0.12500000       0.02500000 </v>
   <v>       0.47500000       0.12500000       0.02500000 </v>
   <v>       0.17500000       0.17500000       0.02500000 </v>
   <v>       0.22500000       0.17500000       0.02500000 </v>
   <v>       0.27500000       0.17500000       0.02500000 </v>
   <v>       0.32500000       0.17500000       0.02500000 </v>
   <v>       0.37500000       0.17500000       0.02500000 </v>
   <v>       0.42500000       0.17500000       0.02500000 </v>
   <v>       0.47500000       0.17500000       0.02500000 </v>
   <v>       0.22500000       0.22500000       0.02500000 </v>
   <v>       0.27500000       0.22500000       0.02500000 </v>
   <v>       0.32500000       0.22500000       0.02500000 </v>
   <v>       0.37500000       0.22500000       0.02500000 </v>
   <v>       0.42500000       0.22500000       0.02500000 </v>
   <v>       0.47500000       0.22500000       0.02500000 </v>
   <v>       0.27500000       0.27500000       0.02500000 </v>
   <v>       0.32500000       0.27500000       0.02500000 </v>
   <v>       0.37500000       0.27500000       0.02500000 </v>
   <v>       0.42500000       0.27500000       0.02500000 </v>
   <v>       0.47500000       0.27500000       0.02500000 </v>
   <v>       0.32500000       0.32500000       0.02500000 </v>
   <v>       0.37500000       0.32500000       0.02500000 </v>
   <v>       0.42500000       0.32500000       0.02500000 </v>
   <v>       0.47500000       0.32500000       0.02500000 </v>
   <v>       0.37500000       0.37500000       0.02500000 </v>
   <v>       0.42500000       0.37500000       0.02500000 </v>
   <v>       0.47500000       0.37500000       0.02500000 </v>
   <v>       0.42500000       0.42500000       0.02500000 </v>
   <v>       0.47500000       0.42500000       0.02500000 </v>
   <v>       0.47500000       0.47500000       0.02500000 </v>
   <v>       0.07500000       0.07500000       0.07500000 </v>
   <v>       0.12500000       0.07500000       0.07500000 </v>
   <v>       0.17500000       0.07500000       0.07500000 </v>
   <v>       0.22500000       0.07500000       0.07500000 </v>
   <v>       0.27500000       0.07500000       0.07500000 </v>
   <v>       0.32500000       0.07500000       0.07500000 </v>
   <v>       0.37500000       0.07500000       0.07500000 </v>
   <v>       0.42500000       0.07500000       0.07500000 </v>
   <v>       0.47500000       0.07500000       0.07500000 </v>
   <v>       0.12500000       0.12500000       0.07500000 </v>
   <v>       0.17500000       0.12500000       0.07500000 </v>
   <v>       0.22500000       0.12500000       0.07500000 </v>
   <v>       0.27500000       0.12500000       0.07500000 </v>
   <v>       0.32500000       0.12500000       0.07500000 </v>
   <v>       0.37500000       0.12500000       0.07500000 </v>
   <v>       0.42500000       0.12500000       0.07500000 </v>
   <v>       0.47500000       0.12500000       0.07500000 </v>
   <v>       0.17500000       0.17500000       0.07500000 </v>
   <v>       0.22500000       0.17500000       0.07500000 </v>
   <v>       0.27500000       0.17500000       0.07500000 </v>
   <v>       0.32500000       0.17500000       0.07500000 </v>
   <v>       0.37500000       0.17500000       0.07500000 </v>
   <v>       0.42500000       0.17500000       0.07500000 </v>
   <v>       0.47500000       0.17500000       0.07500000 </v>
   <v>       0.22500000       0.22500000       0.07500000 </v>
   <v>       0.27500000       0.22500000       0.07500000 </v>
   <v>       0.32500000       0.22500000       0.07500000 </v>
   <v>       0.37500000       0.22500000       0.07500000 </v>
   <v>       0.42500000       0.22500000       0.07500000 </v>
   <v>       0.47500000       0.22500000       0.07500000 </v>
   <v>       0.27500000       0.27500000       0.07500000 </v>
   <v>       0.32500000       0.27500000       0.07500000 </v>
   <v>       0.37500000       0.27500000       0.07500000 </v>
   <v>       0.42500000       0.27500000       0.07500000 </v>
   <v>       0.47500000       0.27500000       0.07500000 </v>
   <v>       0.32500000       0.32500000       0.07500000 </v>
   <v>       0.37500000       0.32500000       0.07500000 </v>
   <v>       0.42500000       0.32500000       0.07500000 </v>
   <v>       0.47500000       0.32500000       0.07500000 </v>
   <v>       0.37500000       0.37500000       0.07500000 </v>
   <v>       0.42500000       0.37500000       0.07500000 </v>
   <v>       0.47500000       0.37500000       0.07500000 </v>
   <v>       0.42500000       0.42500000       0.07500000 </v>
   <v>       0.47500000       0.42500000       0.07500000 </v>
   <v>       0.47500000       0.47500000       0.07500000 </v>
   <v>       0.12500000       0.12500000       0.12500000 </v>
   <v>       0.17500000       0.12500000       0.12500000 </v>
   <v>       0.22500000       0.12500000       0.12500000 </v>
   <v>       0.27500000       0.12500000       0.12500000 </v>
   <v>       0.32500000       0.12500000       0.12500000 </v>
   <v>       0.37500000       0.12500000       0.12500000 </v>
   <v>       0.42500000       0.12500000       0.12500000 </v>
   <v>       0.47500000       0.12500000       0.12500000 </v>
   <v>       0.17500000       0.17500000       0.12500000 </v>
   <v>       0.22500000       0.17500000       0.12500000 </v>
   <v>       0.27500000       0.17500000       0.12500000 </v>
   <v>       0.32500000       0.17500000       0.12500000 </v>
   <v>       0.37500000       0.17500000       0.12500000 </v>
   <v>       0.42500000       0.17500000       0.12500000 </v>
   <v>       0.47500000       0.17500000       0.12500000 </v>
   <v>       0.22500000       0.22500000       0.12500000 </v>
   <v>       0.27500000       0.22500000       0.12500000 </v>
   <v>       0.32500000       0.22500000       0.12500000 </v>
   <v>       0.37500000       0.22500000       0.12500000 </v>
   <v>       0.42500000       0.22500000       0.12500000 </v>
   <v>       0.47500000       0.22500000       0.12500000 </v>
   <v>       0.27500000       0.27500000       0.12500000 </v>
   <v>       0.32500000       0.27500000       0.12500000 </v>
   <v>       0.37500000       0.27500000       0.12500000 </v>
   <v>       0.42500000       0.27500000       0.12500000 </v>
   <v>       0.47500000       0.27500000       0.12500000 </v>
   <v>       0.32500000       0.32500000       0.12500000 </v>
   <v>       0.37500000       0.32500000       0.12500000 </v>
   <v>       0.42500000       0.32500000       0.12500000 </v>
   <v>       0.47500000       0.32500000       0.12500000 </v>
   <v>       0.37500000       0.37500000       0.12500000 </v>
   <v>       0.42500000       0.37500000       0.12500000 </v>
   <v>       0.47500000       0.37500000       0.12500000 </v>
   <v>       0.42500000       0.42500000       0.12500000 </v>
   <v>       0.47500000       0.42500000       0.12500000 </v>
   <v>       0.47500000       0.47500000       0.12500000 </v>
   <v>       0.17500000       0.17500000       0.17500000 </v>
   <v>       0.22500000       0.17500000       0.17500000 </v>
   <v>       0.27500000       0.17500000       0.17500000 </v>
   <v>       0.32500000       0.17500000       0.17500000 </v>
   <v>       0.37500000       0.17500000       0.17500000 </v>
   <v>       0.42500000       0.17500000       0.17500000 </v>
   <v>       0.47500000       0.17500000       0.17500000 </v>
   <v>       0.22500000       0.22500000       0.17500000 </v>
   <v>       0.27500000       0.22500000       0.17500000 </v>
   <v>       0.32500000       0.22500000       0.17500000 </v>
   <v>       0.37500000       0.22500000       0.17500000 </v>
   <v>       0.42500000       0.22500000       0.17500000 </v>
   <v>       0.47500000       0.22500000       0.17500000 </v>
   <v>       0.27500000       0.27500000       0.17500000 </v>
   <v>       0.32500000       0.27500000       0.17500000 </v>
   <v>       0.37500000       0.27500000       0.17500000 </v>
   <v>       0.42500000       0.27500000       0.17500000 </v>
   <v>       0.47500000       0.27500000       0.17500000 </v>
   <v>       0.32500000       0.32500000       0.17500000 </v>
   <v>       0.37500000       0.32500000       0.17500000 </v>
   <v>       0.42500000       0.32500000       0.17500000 </v>
   <v>       0.47500000       0.32500000       0.17500000 </v>
   <v>       0.37500000       0.37500000       0.17500000 </v>
   <v>       0.42500000       0.37500000       0.17500000 </v>
   <v>       0.47500000       0.37500000       0.17500000 </v>
   <v>       0.42500000       0.42500000       0.17500000 </v>
   <v>       0.47500000       0.42500000       0.17500000 </v>
   <v>       0.47500000       0.47500000       0.17500000 </v>
   <v>       0.22500000       0.22500000       0.22500000 </v>
   <v>       0.27500000       0.22500000       0.22500000 </v>
   <v>       0.32500000       0.22500000       0.22500000 </v>
   <v>       0.37500000       0.22500000       0.22500000 </v>
   <v>       0.42500000       0.22500000       0.22500000 </v>
   <v>       0.47500000       0.22500000       0.22500000 </v>
   <v>       0.27500000       0.27500000       0.22500000 </v>
   <v>       0.32500000       0.27500000       0.22500000 </v>
   <v>       0.37500000       0.27500000       0.22500000 </v>
   <v>       0.42500000       0.27500000       0.22500000 </v>
   <v>       0.47500000       0.27500000       0.22500000 </v>
   <v>       0.32500000       0.32500000       0.22500000 </v>
   <v>       0.37500000       0.32500000       0.22500000 </v>
   <v>       0.42500000       0.32500000       0.22500000 </v>
   <v>       0.47500000       0.32500000       0.22500000 </v>
   <v>       0.37500000       0.37500000       0.22500000 </v>
   <v>       0.42500000       0.37500000       0.22500000 </v>
   <v>       0.47500000       0.37500000       0.22500000 </v>
   <v>       0.42500000       0.42500000       0.22500000 </v>
   <v>       0.47500000       0.42500000       0.22500000 </v>
   <v>       0.47500000       0.47500000       0.22500000 </v>
   <v>       0.27500000       0.27500000       0.27500000 </v>
   <v>       0.32500000       0.27500000       0.27500000 </v>
   <v>       0.37500000       0.27500000       0.27500000 </v>
   <v>       0.42500000       0.27500000       0.27500000 </v>
   <v>       0.47500000       0.27500000       0.27500000 </v>
   <v>       0.32500000       0.32500000       0.27500000 </v>
   <v>       0.37500000       0.32500000       0.27500000 </v>
   <v>       0.42500000       0.32500000       0.27500000 </v>
   <v>       0.47500000       0.32500000       0.27500000 </v>
   <v>       0.37500000       0.37500000       0.27500000 </v>
   <v>       0.42500000       0.37500000       0.27500000 </v>
   <v>       0.47500000       0.37500000       0.27500000 </v>
   <v>       0.42500000       0.42500000       0.27500000 </v>
   <v>       0.47500000       0.42500000       0.27500000 </v>
   <v>       0.47500000       0.47500000       0.27500000 </v>
   <v>       0.32500000       0.32500000       0.32500000 </v>
   <v>       0.37500000       0.32500000       0.32500000 </v>
   <v>       0.42500000       0.32500000       0.32500000 </v>
   <v>       0.47500000       0.32500000       0.32500000 </v>
   <v>       0.37500000       0.37500000       0.32500000 </v>
   <v>       0.42500000       0.37500000       0.32500000 </v>
   <v>       0.47500000       0.37500000       0.32500000 </v>
   <v>       0.42500000       0.42500000       0.32500000 </v>
   <v>       0.47500000       0.42500000       0.32500000 </v>
   <v>       0.47500000       0.47500000       0.32500000 </v>
   <v>       0.37500000       0.37500000       0.37500000 </v>
   <v>       0.42500000       0.37500000       0.37500000 </v>
   <v>       0.47500000       0.37500000       0.37500000 </v>
   <v>       0.42500000       0.42500000       0.37500000 </v>
   <v>       0.47500000       0.42500000       0.37500000 </v>
   <v>       0.47500000       0.47500000       0.37500000 </v>
   <v>       0.42500000       0.42500000       0.42500000 </v>
   <v>       0.47500000       0.42500000       0.42500000 </v>
   <v>       0.47500000       0.47500000       0.42500000 </v>
   <v>       0.47500000       0.47500000       0.47500000 </v>
  </varray>
  <varray name="weights" >
   <v>       0.00100000 </v>
   <v>       0.00300000 </v>
   <v>       0.00300000 </v>
   <v>       0.00300000 </v>
   <v>       0.00300000 </v>
   <v>       0.00300000 </v>
   <v>       0.00300000 </v>
   <v>       0.00300000 </v>
   <v>       0.00300000 </v>
   <v>       0.00300000 </v>
   <v>       0.00300000 </v>
   <v>       0.00600000 </v>
   <v>       0.00600000 </v>
   <v>       0.00600000 </v>
   <v>       0.00600000 </v>
   <v>       0.00600000 </v>
   <v>       0.00600000 </v>
   <v>       0.00600000 </v>
   <v>       0.00600000 </v>
   <v>       0.00300000 </v>
   <v>       0.00600000 </v>
   <v>       0.00600000 </v>
   <v>       0.00600000 </v>
   <v>       0.00600000 </v>
   <v>       0.00600000 </v>
   <v>       0.00600000 </v>
   <v>       0.00600000 </v>
   <v>       0.00300000 </v>
   <v>       0.00600000 </v>
   <v>       0.00600000 </v>
   <v>       0.00600000 </v>
   <v>       0.00600000 </v>
   <v>       0.00600000 </v>
   <v>       0.00600000 </v>
   <v>       0.00300000 </v>
   <v>       0.00600000 </v>
   <v>       0.00600000 </v>
   <v>       0.00600000 </v>
   <v>       0.00600000 </v>
   <v>       0.00600000 </v>
   <v>       0.00300000 </v>
   <v>       0.00600000 </v>
   <v>       0.00600000 </v>
   <v>       0.00600000 </v>
   <v>       0.00600000 </v>
   <v>       0.00300000 </v>
   <v>       0.00600000 </v>
   <v>       0.00600000 </v>
   <v>       0.00600000 </v>
   <v>       0.00300000 </v>
   <v>       0.00600000 </v>
   <v>       0.00600000 </v>
   <v>       0.00300000 </v>
   <v>       0.00600000 </v>
   <v>       0.00300000 </v>
   <v>       0.00100000 </v>
   <v>       0.00300000 </v>
   <v>       0.00300000 </v>
   <v>       0.00300000 </v>
   <v>       0.00300000 </v>
   <v>       0.00300000 </v>
   <v>       0.00300000 </v>
   <v>       0.00300000 </v>
   <v>       0.00300000 </v>
   <v>       0.00300000 </v>
   <v>       0.00600000 </v>
   <v>       0.00600000 </v>
   <v>       0.00600000 </v>
   <v>       0.00600000 </v>
   <v>       0.00600000 </v>
   <v>       0.00600000 </v>
   <v>       0.00600000 </v>
   <v>       0.00300000 </v>
   <v>       0.00600000 </v>
   <v>       0.00600000 </v>
   <v>       0.00600000 </v>
   <v>       0.00600000 </v>
   <v>       0.00600000 </v>
   <v>       0.00600000 </v>
   <v>       0.00300000 </v>
   <v>       0.00600000 </v>
   <v>       0.00600000 </v>
   <v>       0.00600000 </v>
   <v>       0.00600000 </v>
   <v>       0.00600000 </v>
   <v>       0.00300000 </v>
   <v>       0.00600000 </v>
   <v>       0.00600000 </v>
   <v>       0.00600000 </v>
   <v>       0.00600000 </v>
   <v>       0.00300000 </v>
   <v>       0.00600000 </v>
   <v>       0.00600000 </v>
   <v>       0.00600000 </v>
   <v>       0.00300000 </v>
   <v>       0.00600000 </v>
   <v>       0.00600000 </v>
   <v>       0.00300000 </v>
   <v>       0.00600000 </v>
   <v>       0.00300000 </v>
   <v>       0.00100000 </v>
   <v>       0.00300000 </v>
   <v>       0.00300000 </v>
   <v>       0.00300000 </v>
   <v>       0.00300000 </v>
   <v>       0.00300000 </v>
   <v>       0.00300000 </v>
   <v>       0.00300000 </v>
   <v>       0.00300000 </v>
   <v>       0.00600000 </v>
   <v>       0.00600000 </v>
   <v>       0.00600000 </v>
   <v>       0.00600000 </v>
   <v>       0.00600000 </v>
   <v>       0.00600000 </v>
   <v>       0.00300000 </v>
   <v>       0.00600000 </v>
   <v>       0.00600000 </v>
   <v>       0.00600000 </v>
   <v>       0.00600000 </v>
   <v>       0.00600000 </v>
   <v>       0.00300000 </v>
   <v>       0.00600000 </v>
   <v>       0.00600000 </v>
   <v>       0.00600000 </v>
   <v>       0.00600000 </v>
   <v>       0.00300000 </v>
   <v>       0.00600000 </v>
   <v>       0.00600000 </v>
   <v>       0.00600000 </v>
   <v>       0.00300000 </v>
   <v>       0.00600000 </v>
   <v>       0.00600000 </v>
   <v>       0.00300000 </v>
   <v>       0.00600000 </v>
   <v>       0.00300000 </v>
   <v>       0.00100000 </v>
   <v>       0.00300000 </v>
   <v>       0.00300000 </v>
   <v>       0.00300000 </v>
   <v>       0.00300000 </v>
   <v>       0.00300000 </v>
   <v>       0.00300000 </v>
   <v>       0.00300000 </v>
   <v>       0.00600000 </v>
   <v>       0.00600000 </v>
   <v>       0.00600000 </v>
   <v>       0.00600000 </v>
   <v>       0.00600000 </v>
   <v>       0.00300000 </v>
   <v>       0.00600000 </v>
   <v>       0.00600000 </v>
   <v>       0.00600000 </v>
   <v>       0.00600000 </v>
   <v>       0.00300000 </v>
   <v>       0.00600000 </v>
   <v>       0.00600000 </v>
   <v>       0.00600000 </v>
   <v>       0.00300000 </v>
   <v>       0.00600000 </v>
   <v>       0.00600000 </v>
   <v>       0.00300000 </v>
   <v>       0.00600000 </v>
   <v>       0.00300000 </v>
   <v>       0.00100000 </v>
   <v>       0.00300000 </v>
   <v>       0.00300000 </v>
   <v>       0.00300000 </v>
   <v>       0.00300000 </v>
   <v>       0.00300000 </v>
   <v>       0.00300000 </v>
   <v>       0.00600000 </v>
   <v>       0.00600000 </v>
   <v>       0.00600000 </v>
   <v>       0.00600000 </v>
   <v>       0.00300000 </v>
   <v>       0.00600000 </v>
   <v>       0.00600000 </v>
   <v>       0.00600000 </v>
   <v>       0.00300000 </v>
   <v>       0.00600000 </v>
   <v>       0.00600000 </v>
   <v>       0.00300000 </v>
   <v>       0.00600000 </v>
   <v>       0.00300000 </v>
   <v>       0.00100000 </v>
   <v>       0.00300000 </v>
   <v>       0.00300000 </v>
   <v>       0.00300000 </v>
   <v>       0.00300000 </v>
   <v>       0.00300000 </v>
   <v>       0.00600000 </v>
   <v>       0.00600000 </v>
   <v>       0.00600000 </v>
   <v>       0.00300000 </v>
   <v>       0.00600000 </v>
   <v>       0.00600000 </v>
   <v>       0.00300000 </v>
   <v>       0.00600000 </v>
   <v>       0.00300000 </v>
   <v>       0.00100000 </v>
   <v>       0.00300000 </v>
   <v>       0.00300000 </v>
   <v>       0.00300000 </v>
   <v>       0.00300000 </v>
   <v>       0.00600000 </v>
   <v>       0.00600000 </v>
   <v>       0.00300000 </v>
   <v>       0.00600000 </v>
   <v>       0.00300000 </v>
   <v>       0.00100000 </v>
   <v>       0.00300000 </v>
   <v>       0.00300000 </v>
   <v>       0.00300000 </v>
   <v>       0.00600000 </v>
   <v>       0.00300000 </v>
   <v>       0.00100000 </v>
   <v>       0.00300000 </v>
   <v>       0.00300000 </v>
   <v>       0.00100000 </v>
  </varray>
 </kpoints>
 <parameters>
  <separator name="general" >
   <i type="string" name="SYSTEM">Pt bulk calculation</i>
   <i type="logical" name="LCOMPAT"> F  </i>
  </separator>
  <separator name="electronic" >
   <i type="string" name="PREC">normal</i>
   <i name="ENMAX">    450.00000000</i>
   <i name="ENAUG">    358.96600000</i>
   <i name="EDIFF">      0.00000100</i>
   <i type="int" name="IALGO">    38</i>
   <i type="int" name="IWAVPR">    11</i>
   <i type="int" name="NBANDS">    24</i>
   <i name="NELECT">     40.00000000</i>
   <i type="int" name="TURBO">     0</i>
   <i type="int" name="IRESTART">     0</i>
   <i type="int" name="NREBOOT">     0</i>
   <i type="int" name="NMIN">     0</i>
   <i name="EREF">      0.00000000</i>
   <separator name="electronic smearing" >
    <i type="int" name="ISMEAR">     2</i>
    <i name="SIGMA">      0.20000000</i>
    <i name="KSPACING">      0.50000000</i>
    <i type="logical" name="KGAMMA"> T  </i>
   </separator>
   <separator name="electronic projectors" >
    <i type="logical" name="LREAL"> F  </i>
    <v name="ROPT">      0.00000000</v>
    <i type="int" name="LMAXPAW">  -100</i>
    <i type="int" name="LMAXMIX">     2</i>
    <i type="logical" name="NLSPLINE"> F  </i>
   </separator>
   <separator name="electronic startup" >
    <i type="int" name="ISTART">     0</i>
    <i type="int" name="ICHARG">     2</i>
    <i type="int" name="INIWAV">     1</i>
   </separator>
   <separator name="electronic spin" >
    <i type="int" name="ISPIN">     1</i>
    <i type="logical" name="LNONCOLLINEAR"> F  </i>
    <v name="MAGMOM">      1.00000000      1.00000000      1.00000000      1.00000000</v>
    <i name="NUPDOWN">     -1.00000000</i>
    <i type="logical" name="LSORBIT"> F  </i>
    <v name="SAXIS">      0.00000000      0.00000000      1.00000000</v>
    <i type="logical" name="LSPIRAL"> F  </i>
    <v name="QSPIRAL">      0.00000000      0.00000000      0.00000000</v>
    <i type="logical" name="LZEROZ"> F  </i>
   </separator>
   <separator name="electronic exchange-correlation" >
    <i type="logical" name="LASPH"> F  </i>
    <i type="logical" name="LMETAGGA"> F  </i>
   </separator>
   <separator name="electronic convergence" >
    <i type="int" name="NELM">    60</i>
    <i type="int" name="NELMDL">    -5</i>
    <i type="int" name="NELMIN">    10</i>
    <i name="ENINI">    450.00000000</i>
    <separator name="electronic convergence detail" >
     <i type="logical" name="LDIAG"> T  </i>
     <i type="logical" name="LSUBROT"> F  </i>
     <i name="WEIMIN">      0.00100000</i>
     <i name="EBREAK">      0.00000001</i>
     <i name="DEPER">      0.30000000</i>
     <i type="int" name="NRMM">     4</i>
     <i name="TIME">      0.40000000</i>
    </separator>
   </separator>
   <separator name="electronic mixer" >
    <i name="AMIX">      0.40000000</i>
    <i name="BMIX">      1.00000000</i>
    <i name="AMIN">      0.10000000</i>
    <i name="AMIX_MAG">      1.60000000</i>
    <i name="BMIX_MAG">      1.00000000</i>
    <separator name="electronic mixer details" >
     <i type="int" name="IMIX">     4</i>
     <i type="logical" name="MIXFIRST"> F  </i>
     <i type="int" name="MAXMIX">   -45</i>
     <i name="WC">    100.00000000</i>
     <i type="int" name="INIMIX">     1</i>
     <i type="int" name="MIXPRE">     1</i>
     <i type="int" name="MREMOVE">     5</i>
    </separator>
   </separator>
   <separator name="electronic dipolcorrection" >
    <i type="logical" name="LDIPOL"> F  </i>
    <i type="logical" name="LMONO"> F  </i>
    <i type="int" name="IDIPOL">     0</i>
    <i name="EPSILON">      1.00000000</i>
    <v name="DIPOL">   -100.00000000   -100.00000000   -100.00000000</v>
    <i name="EFIELD">      0.00000000</i>
   </separator>
  </separator>
  <separator name="grids" >
   <i type="int" name="NGX">    20</i>
   <i type="int" name="NGY">    20</i>
   <i type="int" name="NGZ">    20</i>
   <i type="int" name="NGXF">    40</i>
   <i type="int" name="NGYF">    40</i>
   <i type="int" name="NGZF">    40</i>
   <i type="logical" name="ADDGRID"> F  </i>
  </separator>
  <separator name="ionic" >
   <i type="int" name="NSW">    10</i>
   <i type="int" name="IBRION">     2</i>
   <i type="int" name="MDALGO">     0</i>
   <i type="int" name="ISIF">     2</i>
   <i name="PSTRESS">      0.00000000</i>
   <i name="EDIFFG">     -0.02000000</i>
   <i type="int" name="NFREE">     1</i>
   <i name="POTIM">      0.20000000</i>
   <i name="SMASS">     -3.00000000</i>
   <i name="SCALEE">      1.00000000</i>
  </separator>
  <separator name="ionic md" >
   <i name="TEBEG">      0.00010000</i>
   <i name="TEEND">      0.00010000</i>
   <i type="int" name="NBLOCK">     1</i>
   <i type="int" name="KBLOCK">    10</i>
   <i type="int" name="NPACO">   256</i>
   <i name="APACO">     16.00000000</i>
  </separator>
  <separator name="symmetry" >
   <i type="int" name="ISYM">     2</i>
   <i name="SYMPREC">      0.00001000</i>
  </separator>
  <separator name="dos" >
   <i type="int" name="LORBIT">     0</i>
   <v name="RWIGS">     -1.00000000</v>
   <i type="int" name="NEDOS">   301</i>
   <i name="EMIN">     10.00000000</i>
   <i name="EMAX">    -10.00000000</i>
   <i name="EFERMI">      0.00000000</i>
  </separator>
  <separator name="writing" >
   <i type="int" name="NWRITE">     2</i>
   <i type="logical" name="LWAVE"> T  </i>
   <i type="logical" name="LDOWNSAMPLE"> F  </i>
   <i type="logical" name="LCHARG"> T  </i>
   <i type="logical" name="LPARD"> F  </i>
   <i type="logical" name="LVTOT"> F  </i>
   <i type="logical" name="LVHAR"> F  </i>
   <i type="logical" name="LELF"> F  </i>
   <i type="logical" name="LOPTICS"> F  </i>
   <v name="STM">      0.00000000      0.00000000      0.00000000      0.00000000      0.00000000      0.00000000      0.00000000</v>
  </separator>
  <separator name="performance" >
   <i type="int" name="NPAR">     2</i>
   <i type="int" name="NSIM">     4</i>
   <i type="int" name="NBLK">    -1</i>
   <i type="logical" name="LPLANE"> T  </i>
   <i type="logical" name="LSCALAPACK"> F  </i>
   <i type="logical" name="LSCAAWARE"> F  </i>
   <i type="logical" name="LSCALU"> F  </i>
   <i type="logical" name="LASYNC"> F  </i>
   <i type="logical" name="LORBITALREAL"> F  </i>
  </separator>
  <separator name="miscellaneous" >
   <i type="int" name="IDIOT">     3</i>
   <i type="int" name="ISPECIAL">     0</i>
   <i type="logical" name="LMUSIC"> F  </i>
   <v name="POMASS">    195.08000000</v>
   <v name="DARWINR">      0.00000000</v>
   <v name="DARWINV">      1.00000000</v>
   <i type="logical" name="LCORR"> T  </i>
  </separator>
  <i type="logical" name="GGA_COMPAT"> T  </i>
  <i type="logical" name="LBERRY"> F  </i>
  <i type="int" name="ICORELEVEL">     0</i>
  <i type="logical" name="LDAU"> F  </i>
  <i type="int" name="I_CONSTRAINED_M">     0</i>
  <separator name="electronic exchange-correlation" >
   <i type="string" name="GGA">91</i>
   <i type="int" name="VOSKOWN">     0</i>
   <i type="logical" name="LHFCALC"> F  </i>
   <i type="string" name="PRECFOCK"></i>
   <i type="logical" name="LSYMGRAD"> F  </i>
   <i type="logical" name="LHFONE"> F  </i>
   <i type="logical" name="LRHFCALC"> F  </i>
   <i type="logical" name="LTHOMAS"> F  </i>
   <i type="logical" name="LMODELHF"> F  </i>
   <i name="ENCUT4O">     -1.00000000</i>
   <i type="int" name="EXXOEP">     0</i>
   <i type="int" name="FOURORBIT">     0</i>
   <i name="AEXX">      0.00000000</i>
   <i name="HFALPHA">      0.00000000</i>
   <i name="MCALPHA">      0.00000000</i>
   <i name="ALDAX">      1.00000000</i>
   <i name="AGGAX">      1.00000000</i>
   <i name="ALDAC">      1.00000000</i>
   <i name="AGGAC">      1.00000000</i>
   <i type="int" name="NKREDX">     1</i>
   <i type="int" name="NKREDY">     1</i>
   <i type="int" name="NKREDZ">     1</i>
   <i type="logical" name="SHIFTRED"> F  </i>
   <i type="logical" name="ODDONLY"> F  </i>
   <i type="logical" name="EVENONLY"> F  </i>
   <i type="int" name="LMAXFOCK">     0</i>
   <i type="int" name="NMAXFOCKAE">     0</i>
   <i type="logical" name="LFOCKAEDFT"> F  </i>
   <i name="HFSCREEN">      0.00000000</i>
   <i name="HFSCREENC">      0.00000000</i>
   <i type="int" name="NBANDSGWLOW">     0</i>
  </separator>
  <separator name="vdW DFT" >
   <i type="logical" name="LUSE_VDW"> F  </i>
   <i name="Zab_VDW">     -0.84910000</i>
   <i name="PARAM1">      0.12340000</i>
   <i name="PARAM2">      1.00000000</i>
   <i name="PARAM3">      0.00000000</i>
  </separator>
  <separator name="model GW" >
   <i type="int" name="MODEL_GW">     0</i>
   <i name="MODEL_EPS0">      9.24448125</i>
   <i name="MODEL_ALPHA">      1.00000000</i>
  </separator>
  <separator name="linear response parameters" >
   <i type="logical" name="LEPSILON"> F  </i>
   <i type="logical" name="LRPA"> F  </i>
   <i type="logical" name="LNABLA"> F  </i>
   <i type="logical" name="LVEL"> F  </i>
   <i type="int" name="KINTER">     0</i>
   <i name="CSHIFT">      0.10000000</i>
   <i name="OMEGAMAX">     -1.00000000</i>
   <i name="DEG_THRESHOLD">      0.00200000</i>
   <i name="RTIME">     -0.10000000</i>
   <i name="WPLASMAI">      0.00000000</i>
   <v name="DFIELD">      0.00000000      0.00000000      0.00000000</v>
   <v name="WPLASMA">      0.00000000      0.00000000      0.00000000      0.00000000      0.00000000      0.00000000      0.00000000      0.00000000      0.00000000</v>
  </separator>
  <separator name="orbital magnetization" >
   <i type="logical" name="NUCIND"> F  </i>
   <v name="MAGPOS">      0.00000000      0.00000000      0.00000000</v>
   <i type="logical" name="LNICSALL"> T  </i>
   <i type="logical" name="ORBITALMAG"> F  </i>
   <i type="logical" name="LMAGBLOCH"> F  </i>
   <i type="logical" name="LCHIMAG"> F  </i>
   <i type="logical" name="LGAUGE"> T  </i>
   <i type="int" name="MAGATOM">     0</i>
   <v name="MAGDIPOL">      0.00000000      0.00000000      0.00000000</v>
   <v name="AVECCONST">      0.00000000      0.00000000      0.00000000</v>
  </separator>
  <separator name="response functions" >
   <i type="logical" name="LADDER"> F  </i>
   <i type="logical" name="LRPAFORCE"> F  </i>
   <i type="logical" name="LFXC"> F  </i>
   <i type="logical" name="LHARTREE"> T  </i>
   <i type="int" name="IBSE">     0</i>
   <v type="int" name="KPOINT">    -1     0     0     0</v>
   <i type="logical" name="LTCTE"> F  </i>
   <i type="logical" name="LTETE"> F  </i>
   <i type="logical" name="LTRIPLET"> F  </i>
   <i type="logical" name="LFXCEPS"> F  </i>
   <i type="logical" name="LFXHEG"> F  </i>
   <i type="int" name="NATURALO">     2</i>
   <i type="logical" name="L2ORDER"> F  </i>
   <i type="logical" name="LMP2LT"> F  </i>
   <i type="logical" name="LUSEW"> F  </i>
   <i name="ENCUTGW">     -2.00000000</i>
   <i name="ENCUTGWSOFT">     -2.00000000</i>
   <i name="ENCUTLF">     -1.00000000</i>
   <i type="int" name="LMAXMP2">    -1</i>
   <i name="SCISSOR">      0.00000000</i>
   <i type="int" name="NOMEGA">     0</i>
   <i type="int" name="NOMEGAR">     0</i>
   <i type="int" name="NBANDSGW">    -1</i>
   <i type="int" name="NBANDSO">    -1</i>
   <i type="int" name="NBANDSV">    -1</i>
   <i type="int" name="NELM">     1</i>
   <i type="int" name="NELMHF">     1</i>
   <i type="int" name="DIM">     3</i>
   <i type="int" name="ANTIRES">     0</i>
   <i name="OMEGAMAX">    -30.00000000</i>
   <i name="OMEGAMIN">    -30.00000000</i>
   <i name="OMEGATL">   -200.00000000</i>
   <i type="int" name="OMEGAGRID">   140</i>
   <i name="CSHIFT">     -0.10000000</i>
   <i type="logical" name="SELFENERGY"> F  </i>
   <i type="logical" name="LSPECTRAL"> F  </i>
   <i type="logical" name="LSPECTRALGW"> F  </i>
   <i type="logical" name="LSINGLES"> F  </i>
   <i type="logical" name="LFERMIGW"> F  </i>
   <i type="logical" name="ODDONLYGW"> F  </i>
   <i type="logical" name="EVENONLYGW"> F  </i>
   <i type="int" name="NKREDLFX">     1</i>
   <i type="int" name="NKREDLFY">     1</i>
   <i type="int" name="NKREDLFZ">     1</i>
   <i type="int" name="MAXMEM">  2800</i>
   <i type="int" name="TELESCOPE">     0</i>
   <i type="int" name="TAUPAR">     1</i>
   <i type="int" name="OMEGAPAR">    -1</i>
   <i name="LAMBDA">      1.00000000</i>
  </separator>
  <separator name="External order field" >
   <i name="OFIELD_KAPPA">      0.00000000</i>
   <v name="OFIELD_K">      0.00000000      0.00000000      0.00000000</v>
   <i name="OFIELD_Q6_NEAR">      0.00000000</i>
   <i name="OFIELD_Q6_FAR">      0.00000000</i>
   <i name="OFIELD_A">      0.00000000</i>
  </separator>
 </parameters>
 <atominfo>
  <atoms>       4 </atoms>
  <types>       1 </types>
  <array name="atoms" >
   <dimension dim="1">ion</dimension>
   <field type="string">element</field>
   <field type="int">atomtype</field>
   <set>
    <rc><c>Pt</c><c>   1</c></rc>
    <rc><c>Pt</c><c>   1</c></rc>
    <rc><c>Pt</c><c>   1</c></rc>
    <rc><c>Pt</c><c>   1</c></rc>
   </set>
  </array>
  <array name="atomtypes" >
   <dimension dim="1">type</dimension>
   <field type="int">atomspertype</field>
   <field type="string">element</field>
   <field>mass</field>
   <field>valence</field>
   <field type="string">pseudopotential</field>
   <set>
    <rc><c>   4</c><c>Pt</c><c>    195.08000000</c><c>     10.00000000</c><c> PAW_PBE Pt 05Jan2001                   </c></rc>
   </set>
  </array>
 </atominfo>
 <structure name="initialpos" >
  <crystal>
   <varray name="basis" >
    <v>       3.95000000       0.00000000       0.00000000 </v>
    <v>       0.00000000       3.95000000       0.00000000 </v>
    <v>       0.00000000       0.00000000       3.95000000 </v>
   </varray>
   <i name="volume">     61.62987500 </i>
   <varray name="rec_basis" >
    <v>       0.25316456       0.00000000       0.00000000 </v>
    <v>       0.00000000       0.25316456       0.00000000 </v>
    <v>       0.00000000       0.00000000       0.25316456 </v>
   </varray>
  </crystal>
  <varray name="positions" >
   <v>       0.00000000       0.00000000       0.00000000 </v>
   <v>       0.00000000       0.50000000       0.50000000 </v>
   <v>       0.50000000       0.00000000       0.50000000 </v>
   <v>       0.50000000       0.50000000       0.00000000 </v>
  </varray>
 </structure>
 <calculation>
  <scstep>
   <time name="dav">    1.77    1.77</time>
   <time name="total">    1.79    1.84</time>
   <energy>
    <i name="alphaZ">    377.72662690 </i>
    <i name="ewald">  -3342.83740542 </i>
    <i name="hartreedc">   -293.69581636 </i>
    <i name="XCdc">     13.89123005 </i>
    <i name="pawpsdc">   2293.79710215 </i>
    <i name="pawaedc">  -2181.03440391 </i>
    <i name="eentropy">     -0.00102598 </i>
    <i name="bandstr">    659.17941360 </i>
    <i name="atom">   2915.53815049 </i>
    <i name="e_fr_energy">    442.56387152 </i>
    <i name="e_wo_entrp">    442.56489749 </i>
    <i name="e_0_energy">    442.56412801 </i>
   </energy>
  </scstep>
  <scstep>
   <time name="dav">    1.77    1.78</time>
   <time name="total">    1.79    1.79</time>
   <energy>
    <i name="e_fr_energy">      3.90608968 </i>
    <i name="e_wo_entrp">      3.90736629 </i>
    <i name="e_0_energy">      3.90640883 </i>
   </energy>
  </scstep>
  <scstep>
   <time name="dav">    2.45    2.45</time>
   <time name="total">    2.46    2.46</time>
   <energy>
    <i name="e_fr_energy">    -25.15013736 </i>
    <i name="e_wo_entrp">    -25.14573360 </i>
    <i name="e_0_energy">    -25.14903642 </i>
   </energy>
  </scstep>
  <scstep>
   <time name="dav">    1.92    1.92</time>
   <time name="total">    1.94    1.94</time>
   <energy>
    <i name="e_fr_energy">    -26.01460468 </i>
    <i name="e_wo_entrp">    -26.00993716 </i>
    <i name="e_0_energy">    -26.01343780 </i>
   </energy>
  </scstep>
  <scstep>
   <time name="dav">    2.13    2.13</time>
   <time name="total">    2.25    2.25</time>
   <energy>
    <i name="e_fr_energy">    -26.03865712 </i>
    <i name="e_wo_entrp">    -26.03394531 </i>
    <i name="e_0_energy">    -26.03747917 </i>
   </energy>
  </scstep>
  <scstep>
   <time name="dav">    2.11    2.11</time>
   <time name="total">    2.23    2.23</time>
   <energy>
    <i name="e_fr_energy">    -24.53232196 </i>
    <i name="e_wo_entrp">    -24.52746321 </i>
    <i name="e_0_energy">    -24.53110727 </i>
   </energy>
  </scstep>
  <scstep>
   <time name="dav">    2.52    2.52</time>
   <time name="total">    2.64    2.64</time>
   <energy>
    <i name="e_fr_energy">    -24.39330497 </i>
    <i name="e_wo_entrp">    -24.38828098 </i>
    <i name="e_0_energy">    -24.39204897 </i>
   </energy>
  </scstep>
  <scstep>
   <time name="dav">    1.86    1.86</time>
   <time name="total">    1.99    1.99</time>
   <energy>
    <i name="e_fr_energy">    -24.37793824 </i>
    <i name="e_wo_entrp">    -24.37292147 </i>
    <i name="e_0_energy">    -24.37668405 </i>
   </energy>
  </scstep>
  <scstep>
   <time name="dav">    2.25    2.25</time>
   <time name="total">    2.38    2.38</time>
   <energy>
    <i name="e_fr_energy">    -24.37760000 </i>
    <i name="e_wo_entrp">    -24.37257657 </i>
    <i name="e_0_energy">    -24.37634414 </i>
   </energy>
  </scstep>
  <scstep>
   <time name="dav">    1.95    1.95</time>
   <time name="total">    2.07    2.07</time>
   <energy>
    <i name="e_fr_energy">    -24.37761928 </i>
    <i name="e_wo_entrp">    -24.37259606 </i>
    <i name="e_0_energy">    -24.37636348 </i>
   </energy>
  </scstep>
  <scstep>
   <time name="dav">    1.60    1.60</time>
   <time name="total">    1.72    1.72</time>
   <energy>
    <i name="e_fr_energy">    -24.37762187 </i>
    <i name="e_wo_entrp">    -24.37259867 </i>
    <i name="e_0_energy">    -24.37636607 </i>
   </energy>
  </scstep>
  <scstep>
   <time name="dav">    1.22    1.22</time>
   <time name="total">    1.24    1.24</time>
   <energy>
    <i name="alphaZ">    377.72662690 </i>
    <i name="ewald">  -3342.83740542 </i>
    <i name="hartreedc">   -253.24212706 </i>
    <i name="XCdc">     12.32063698 </i>
    <i name="pawpsdc">   2396.00164279 </i>
    <i name="pawaedc">  -2293.50296462 </i>
    <i name="eentropy">     -0.00502315 </i>
    <i name="bandstr">    163.62284140 </i>
    <i name="atom">   2915.53815049 </i>
    <i name="e_fr_energy">    -24.37762170 </i>
    <i name="e_wo_entrp">    -24.37259854 </i>
    <i name="e_0_energy">    -24.37636591 </i>
   </energy>
  </scstep>
  <structure>
   <crystal>
    <varray name="basis" >
     <v>       3.95000000       0.00000000       0.00000000 </v>
     <v>       0.00000000       3.95000000       0.00000000 </v>
     <v>       0.00000000       0.00000000       3.95000000 </v>
    </varray>
    <i name="volume">     61.62987500 </i>
    <varray name="rec_basis" >
     <v>       0.25316456       0.00000000       0.00000000 </v>
     <v>       0.00000000       0.25316456       0.00000000 </v>
     <v>       0.00000000       0.00000000       0.25316456 </v>
    </varray>
   </crystal>
   <varray name="positions" >
    <v>       0.00000000       0.00000000       0.00000000 </v>
    <v>       0.00000000       0.50000000       0.50000000 </v>
    <v>       0.50000000       0.00000000       0.50000000 </v>
    <v>       0.50000000       0.50000000       0.00000000 </v>
   </varray>
  </structure>
  <varray name="forces" >
   <v>      -0.00000000       0.00000000      -0.00000000 </v>
   <v>       0.00000000       0.00000000      -0.00000000 </v>
   <v>       0.00000000      -0.00000000       0.00000000 </v>
   <v>       0.00000000      -0.00000000       0.00000000 </v>
  </varray>
  <varray name="stress" >
   <v>      77.59882949       0.00000000      -0.00000000 </v>
   <v>      -0.00000000      77.59882949      -0.00000000 </v>
   <v>       0.00000000       0.00000000      77.59882949 </v>
  </varray>
  <energy>
   <i name="e_fr_energy">    -24.37762170 </i>
   <i name="e_wo_entrp">    -24.37636591 </i>
   <i name="e_0_energy">     -0.00502315 </i>
  </energy>
  <time name="totalsc">   26.44   28.59</time>
  <eigenvalues>
   <array>
    <dimension dim="1">band</dimension>
    <dimension dim="2">kpoint</dimension>
    <dimension dim="3">spin</dimension>
    <field>eigene</field>
    <field>occ</field>
    <set>
     <set comment="spin 1">
      <set comment="kpoint 1">
       <r>   -2.3238    1.0000 </r>
       <r>    0.7624    1.0000 </r>
       <r>    0.7624    1.0000 </r>
       <r>    0.7624    1.0000 </r>
       <r>    1.1946    1.0000 </r>
       <r>    1.1946    1.0000 </r>
       <r>    1.1946    1.0000 </r>
       <r>    3.9124    1.0000 </r>
       <r>    3.9335    1.0000 </r>
       <r>    3.9335    1.0000 </r>
       <r>    6.0140    1.0000 </r>
       <r>    6.0140    1.0000 </r>
       <r>    7.5878    0.5696 </r>
       <r>    7.5878    0.5696 </r>
       <r>    7.5878    0.5696 </r>
       <r>    7.9260   -0.0033 </r>
       <r>    7.9260   -0.0033 </r>
       <r>    7.9260   -0.0033 </r>
       <r>    8.0601    0.0035 </r>
       <r>    8.0601    0.0035 </r>
       <r>    8.0601    0.0035 </r>
       <r>    9.6036    0.0000 </r>
       <r>    9.6036    0.0000 </r>
       <r>    9.6036    0.0000 </r>
      </set>
      <set comment="kpoint 2">
       <r>   -2.2576    1.0000 </r>
       <r>    0.7880    1.0000 </r>
       <r>    0.8108    1.0000 </r>
       <r>    0.8108    1.0000 </r>
       <r>    1.2216    1.0000 </r>
       <r>    1.2361    1.0000 </r>
       <r>    1.2361    1.0000 </r>
       <r>    3.8727    1.0000 </r>
       <r>    3.9645    1.0000 </r>
       <r>    3.9672    1.0000 </r>
       <r>    5.9666    1.0000 </r>
       <r>    6.0320    1.0000 </r>
       <r>    7.4859    0.9770 </r>
       <r>    7.4859    0.9770 </r>
       <r>    7.5426    0.7897 </r>
       <r>    7.5426    0.7897 </r>
       <r>    7.5606    0.7074 </r>
       <r>    7.8211   -0.0460 </r>
       <r>    7.9803    0.0044 </r>
       <r>    8.0556    0.0037 </r>
       <r>    8.0556    0.0037 </r>
       <r>    9.2620    0.0000 </r>
       <r>   10.0577    0.0000 </r>
       <r>   10.0577    0.0000 </r>
      </set>
      <set comment="kpoint 3">
       <r>   -2.1264    1.0000 </r>
       <r>    0.8360    1.0000 </r>
       <r>    0.9058    1.0000 </r>
       <r>    0.9058    1.0000 </r>
       <r>    1.2755    1.0000 </r>
       <r>    1.3191    1.0000 </r>
       <r>    1.3191    1.0000 </r>
       <r>    3.7896    1.0000 </r>
       <r>    4.0318    1.0000 </r>
       <r>    4.0344    1.0000 </r>
       <r>    5.8740    1.0000 </r>
       <r>    6.0675    1.0000 </r>
       <r>    6.9587    0.9999 </r>
       <r>    6.9587    0.9999 </r>
       <r>    7.3828    1.0467 </r>
       <r>    7.3828    1.0467 </r>
       <r>    7.5025    0.9345 </r>
       <r>    7.6080    0.4635 </r>
       <r>    7.8328   -0.0414 </r>
       <r>    8.0550    0.0037 </r>
       <r>    8.0550    0.0037 </r>
       <r>    8.7078    0.0000 </r>
       <r>   10.6752    0.0000 </r>
       <r>   10.6752    0.0000 </r>
      </set>
      <set comment="kpoint 4">
       <r>   -1.9321    1.0000 </r>
       <r>    0.8998    1.0000 </r>
       <r>    1.0439    1.0000 </r>
       <r>    1.0439    1.0000 </r>
       <r>    1.3554    1.0000 </r>
       <r>    1.4431    1.0000 </r>
       <r>    1.4431    1.0000 </r>
       <r>    3.6693    1.0000 </r>
       <r>    4.1328    1.0000 </r>
       <r>    4.1347    1.0000 </r>
       <r>    5.7411    1.0000 </r>
       <r>    6.1200    1.0000 </r>
       <r>    6.3885    1.0000 </r>
       <r>    6.3885    1.0000 </r>
       <r>    7.1812    0.9952 </r>
       <r>    7.1812    0.9952 </r>
       <r>    7.2667    1.0011 </r>
       <r>    7.3982    1.0506 </r>
       <r>    7.6479    0.2624 </r>
       <r>    8.0550    0.0037 </r>
       <r>    8.0550    0.0037 </r>
       <r>    8.1020    0.0020 </r>
       <r>   11.3469    0.0000 </r>
       <r>   11.3469    0.0000 </r>
      </set>
      <set comment="kpoint 5">
       <r>   -1.6780    1.0000 </r>
       <r>    0.9680    1.0000 </r>
       <r>    1.2191    1.0000 </r>
       <r>    1.2191    1.0000 </r>
       <r>    1.4604    1.0000 </r>
       <r>    1.6077    1.0000 </r>
       <r>    1.6077    1.0000 </r>
       <r>    3.5174    1.0000 </r>
       <r>    4.2661    1.0000 </r>
       <r>    4.2675    1.0000 </r>
       <r>    5.5756    1.0000 </r>
       <r>    5.8255    1.0000 </r>
       <r>    5.8255    1.0000 </r>
       <r>    6.1886    1.0000 </r>
       <r>    6.7701    1.0000 </r>
       <r>    6.9286    1.0000 </r>
       <r>    6.9286    1.0000 </r>
       <r>    7.2091    0.9952 </r>
       <r>    7.4822    0.9849 </r>
       <r>    7.5777    0.6225 </r>
       <r>    8.0553    0.0037 </r>
       <r>    8.0553    0.0037 </r>
       <r>   12.0391    0.0000 </r>
       <r>   12.0391    0.0000 </r>
      </set>
      <set comment="kpoint 6">
       <r>   -1.3692    1.0000 </r>
       <r>    1.0224    1.0000 </r>
       <r>    1.4223    1.0000 </r>
       <r>    1.4223    1.0000 </r>
       <r>    1.5890    1.0000 </r>
       <r>    1.8120    1.0000 </r>
       <r>    1.8120    1.0000 </r>
       <r>    3.3400    1.0000 </r>
       <r>    4.4295    1.0000 </r>
       <r>    4.4321    1.0000 </r>
       <r>    5.2818    1.0000 </r>
       <r>    5.2818    1.0000 </r>
       <r>    5.3886    1.0000 </r>
       <r>    6.1783    1.0000 </r>
       <r>    6.2719    1.0000 </r>
       <r>    6.6408    1.0000 </r>
       <r>    6.6408    1.0000 </r>
       <r>    6.9381    0.9999 </r>
       <r>    7.1523    0.9961 </r>
       <r>    7.3513    1.0332 </r>
       <r>    8.0557    0.0037 </r>
       <r>    8.0557    0.0037 </r>
       <r>   12.7345    0.0000 </r>
       <r>   12.7345    0.0000 </r>
      </set>
      <set comment="kpoint 7">
       <r>   -1.0135    1.0000 </r>
       <r>    1.0365    1.0000 </r>
       <r>    1.6399    1.0000 </r>
       <r>    1.6399    1.0000 </r>
       <r>    1.7395    1.0000 </r>
       <r>    2.0544    1.0000 </r>
       <r>    2.0544    1.0000 </r>
       <r>    3.1438    1.0000 </r>
       <r>    4.6169    1.0000 </r>
       <r>    4.6273    1.0000 </r>
       <r>    4.7634    1.0000 </r>
       <r>    4.7634    1.0000 </r>
       <r>    5.1987    1.0000 </r>
       <r>    5.6088    1.0000 </r>
       <r>    6.3408    1.0000 </r>
       <r>    6.3408    1.0000 </r>
       <r>    6.3685    1.0000 </r>
       <r>    6.6290    1.0000 </r>
       <r>    6.7725    1.0000 </r>
       <r>    7.2283    0.9960 </r>
       <r>    8.0561    0.0037 </r>
       <r>    8.0561    0.0037 </r>
       <r>   13.4151    0.0000 </r>
       <r>   13.4151    0.0000 </r>
      </set>
      <set comment="kpoint 8">
       <r>   -0.6224    1.0000 </r>
       <r>    0.9768    1.0000 </r>
       <r>    1.8507    1.0000 </r>
       <r>    1.8507    1.0000 </r>
       <r>    1.9095    1.0000 </r>
       <r>    2.3338    1.0000 </r>
       <r>    2.3338    1.0000 </r>
       <r>    2.9353    1.0000 </r>
       <r>    4.2738    1.0000 </r>
       <r>    4.2738    1.0000 </r>
       <r>    4.7877    1.0000 </r>
       <r>    4.8514    1.0000 </r>
       <r>    5.0625    1.0000 </r>
       <r>    5.1444    1.0000 </r>
       <r>    6.0590    1.0000 </r>
       <r>    6.0590    1.0000 </r>
       <r>    6.3070    1.0000 </r>
       <r>    6.4128    1.0000 </r>
       <r>    6.4764    1.0000 </r>
       <r>    7.1030    0.9979 </r>
       <r>    8.0565    0.0037 </r>
       <r>    8.0565    0.0037 </r>
       <r>   14.0372    0.0000 </r>
       <r>   14.0372    0.0000 </r>
      </set>
      <set comment="kpoint 9">
       <r>   -0.2135    1.0000 </r>
       <r>    0.8142    1.0000 </r>
       <r>    2.0245    1.0000 </r>
       <r>    2.0245    1.0000 </r>
       <r>    2.0962    1.0000 </r>
       <r>    2.6497    1.0000 </r>
       <r>    2.6497    1.0000 </r>
       <r>    2.7208    1.0000 </r>
       <r>    3.8159    1.0000 </r>
       <r>    3.8159    1.0000 </r>
       <r>    4.7638    1.0000 </r>
       <r>    4.8335    1.0000 </r>
       <r>    5.1025    1.0000 </r>
       <r>    5.1798    1.0000 </r>
       <r>    5.8339    1.0000 </r>
       <r>    5.8339    1.0000 </r>
       <r>    5.9857    1.0000 </r>
       <r>    6.0688    1.0000 </r>
       <r>    6.5934    1.0000 </r>
       <r>    6.9747    0.9998 </r>
       <r>    8.0568    0.0037 </r>
       <r>    8.0568    0.0037 </r>
       <r>   14.4301    0.0000 </r>
       <r>   14.4301    0.0000 </r>
      </set>
      <set comment="kpoint 10">
       <r>    0.1869    1.0000 </r>
       <r>    0.5426    1.0000 </r>
       <r>    2.1250    1.0000 </r>
       <r>    2.1250    1.0000 </r>
       <r>    2.2964    1.0000 </r>
       <r>    2.5061    1.0000 </r>
       <r>    3.0017    1.0000 </r>
       <r>    3.0017    1.0000 </r>
       <r>    3.3920    1.0000 </r>
       <r>    3.3920    1.0000 </r>
       <r>    4.6828    1.0000 </r>
       <r>    4.6883    1.0000 </r>
       <r>    5.3778    1.0000 </r>
       <r>    5.4422    1.0000 </r>
       <r>    5.6738    1.0000 </r>
       <r>    5.7066    1.0000 </r>
       <r>    5.7066    1.0000 </r>
       <r>    5.7434    1.0000 </r>
       <r>    6.7173    1.0000 </r>
       <r>    6.8453    1.0000 </r>
       <r>    8.0569    0.0037 </r>
       <r>    8.0569    0.0037 </r>
       <r>   14.5117    0.0000 </r>
       <r>   14.5117    0.0000 </r>
      </set>
      <set comment="kpoint 11">
       <r>   -2.1921    1.0000 </r>
       <r>    0.8366    1.0000 </r>
       <r>    0.8366    1.0000 </r>
       <r>    0.8551    1.0000 </r>
       <r>    1.2628    1.0000 </r>
       <r>    1.2628    1.0000 </r>
       <r>    1.2802    1.0000 </r>
       <r>    3.8498    1.0000 </r>
       <r>    3.9804    1.0000 </r>
       <r>    3.9979    1.0000 </r>
       <r>    5.9528    1.0000 </r>
       <r>    6.0191    1.0000 </r>
       <r>    7.2443    0.9975 </r>
       <r>    7.3435    1.0294 </r>
       <r>    7.3435    1.0294 </r>
       <r>    7.4456    1.0376 </r>
       <r>    7.5323    0.8323 </r>
       <r>    7.5323    0.8323 </r>
       <r>    7.9788    0.0043 </r>
       <r>    7.9788    0.0043 </r>
       <r>    8.0113    0.0049 </r>
       <r>    9.7302    0.0000 </r>
       <r>    9.7302    0.0000 </r>
       <r>   10.4088    0.0000 </r>
      </set>
      <set comment="kpoint 12">
       <r>   -2.0621    1.0000 </r>
       <r>    0.8852    1.0000 </r>
       <r>    0.9322    1.0000 </r>
       <r>    0.9423    1.0000 </r>
       <r>    1.3160    1.0000 </r>
       <r>    1.3451    1.0000 </r>
       <r>    1.3680    1.0000 </r>
       <r>    3.7783    1.0000 </r>
       <r>    4.0379    1.0000 </r>
       <r>    4.0605    1.0000 </r>
       <r>    5.8743    1.0000 </r>
       <r>    6.0467    1.0000 </r>
       <r>    6.7987    1.0000 </r>
       <r>    6.8050    1.0000 </r>
       <r>    7.0995    0.9980 </r>
       <r>    7.3144    1.0161 </r>
       <r>    7.3871    1.0480 </r>
       <r>    7.4668    1.0127 </r>
       <r>    7.8387   -0.0389 </r>
       <r>    7.9760    0.0041 </r>
       <r>    7.9853    0.0046 </r>
       <r>    9.2057    0.0000 </r>
       <r>   10.3384    0.0000 </r>
       <r>   10.9493    0.0000 </r>
      </set>
      <set comment="kpoint 13">
       <r>   -1.8694    1.0000 </r>
       <r>    0.9498    1.0000 </r>
       <r>    1.0695    1.0000 </r>
       <r>    1.0711    1.0000 </r>
       <r>    1.3949    1.0000 </r>
       <r>    1.4681    1.0000 </r>
       <r>    1.4983    1.0000 </r>
       <r>    3.6644    1.0000 </r>
       <r>    4.1350    1.0000 </r>
       <r>    4.1534    1.0000 </r>
       <r>    5.7485    1.0000 </r>
       <r>    6.1018    1.0000 </r>
       <r>    6.2399    1.0000 </r>
       <r>    6.2858    1.0000 </r>
       <r>    6.7504    1.0000 </r>
       <r>    7.1248    0.9971 </r>
       <r>    7.1942    0.9951 </r>
       <r>    7.3400    1.0277 </r>
       <r>    7.6621    0.1994 </r>
       <r>    7.9735    0.0040 </r>
       <r>    7.9735    0.0040 </r>
       <r>    8.6250    0.0000 </r>
       <r>   10.9827    0.0000 </r>
       <r>   11.5739    0.0000 </r>
      </set>
      <set comment="kpoint 14">
       <r>   -1.6176    1.0000 </r>
       <r>    1.0189    1.0000 </r>
       <r>    1.2326    1.0000 </r>
       <r>    1.2477    1.0000 </r>
       <r>    1.4984    1.0000 </r>
       <r>    1.6313    1.0000 </r>
       <r>    1.6688    1.0000 </r>
       <r>    3.5174    1.0000 </r>
       <r>    4.2663    1.0000 </r>
       <r>    4.2745    1.0000 </r>
       <r>    5.5917    1.0000 </r>
       <r>    5.6850    1.0000 </r>
       <r>    5.7582    1.0000 </r>
       <r>    6.1762    1.0000 </r>
       <r>    6.3092    1.0000 </r>
       <r>    6.8846    1.0000 </r>
       <r>    6.9514    0.9999 </r>
       <r>    7.1386    0.9966 </r>
       <r>    7.4728    1.0029 </r>
       <r>    7.9679    0.0035 </r>
       <r>    7.9717    0.0038 </r>
       <r>    8.0869    0.0025 </r>
       <r>   11.6299    0.0000 </r>
       <r>   12.2361    0.0000 </r>
      </set>
      <set comment="kpoint 15">
       <r>   -1.3115    1.0000 </r>
       <r>    1.0742    1.0000 </r>
       <r>    1.4254    1.0000 </r>
       <r>    1.4528    1.0000 </r>
       <r>    1.6253    1.0000 </r>
       <r>    1.8336    1.0000 </r>
       <r>    1.8752    1.0000 </r>
       <r>    3.3446    1.0000 </r>
       <r>    4.4163    1.0000 </r>
       <r>    4.4310    1.0000 </r>
       <r>    5.1515    1.0000 </r>
       <r>    5.2380    1.0000 </r>
       <r>    5.4202    1.0000 </r>
       <r>    5.8163    1.0000 </r>
       <r>    6.2673    1.0000 </r>
       <r>    6.6089    1.0000 </r>
       <r>    6.6725    1.0000 </r>
       <r>    6.8743    1.0000 </r>
       <r>    7.2415    0.9972 </r>
       <r>    7.6637    0.1925 </r>
       <r>    7.9654    0.0033 </r>
       <r>    7.9704    0.0037 </r>
       <r>   12.2572    0.0000 </r>
       <r>   12.9104    0.0000 </r>
      </set>
      <set comment="kpoint 16">
       <r>   -0.9588    1.0000 </r>
       <r>    1.0887    1.0000 </r>
       <r>    1.6385    1.0000 </r>
       <r>    1.6729    1.0000 </r>
       <r>    1.7735    1.0000 </r>
       <r>    2.0735    1.0000 </r>
       <r>    2.1115    1.0000 </r>
       <r>    3.1528    1.0000 </r>
       <r>    4.5632    1.0000 </r>
       <r>    4.6242    1.0000 </r>
       <r>    4.6451    1.0000 </r>
       <r>    4.7363    1.0000 </r>
       <r>    5.2650    1.0000 </r>
       <r>    5.3357    1.0000 </r>
       <r>    6.3202    1.0000 </r>
       <r>    6.3732    1.0000 </r>
       <r>    6.3786    1.0000 </r>
       <r>    6.5753    1.0000 </r>
       <r>    6.9148    1.0000 </r>
       <r>    7.3966    1.0504 </r>
       <r>    7.9645    0.0032 </r>
       <r>    7.9693    0.0036 </r>
       <r>   12.8370    0.0000 </r>
       <r>   13.5705    0.0000 </r>
      </set>
      <set comment="kpoint 17">
       <r>   -0.5706    1.0000 </r>
       <r>    1.0284    1.0000 </r>
       <r>    1.8547    1.0000 </r>
       <r>    1.8870    1.0000 </r>
       <r>    1.9409    1.0000 </r>
       <r>    2.3494    1.0000 </r>
       <r>    2.3716    1.0000 </r>
       <r>    2.9486    1.0000 </r>
       <r>    4.1704    1.0000 </r>
       <r>    4.2593    1.0000 </r>
       <r>    4.6534    1.0000 </r>
       <r>    4.8451    1.0000 </r>
       <r>    4.9361    1.0000 </r>
       <r>    5.2028    1.0000 </r>
       <r>    6.0496    1.0000 </r>
       <r>    6.0988    1.0000 </r>
       <r>    6.2630    1.0000 </r>
       <r>    6.4920    1.0000 </r>
       <r>    6.5465    1.0000 </r>
       <r>    7.2136    0.9953 </r>
       <r>    7.9645    0.0032 </r>
       <r>    7.9684    0.0036 </r>
       <r>   13.3318    0.0000 </r>
       <r>   14.1155    0.0000 </r>
      </set>
      <set comment="kpoint 18">
       <r>   -0.1643    1.0000 </r>
       <r>    0.8640    1.0000 </r>
       <r>    2.0429    1.0000 </r>
       <r>    2.0641    1.0000 </r>
       <r>    2.1247    1.0000 </r>
       <r>    2.6548    1.0000 </r>
       <r>    2.6603    1.0000 </r>
       <r>    2.7383    1.0000 </r>
       <r>    3.7317    1.0000 </r>
       <r>    3.8115    1.0000 </r>
       <r>    4.6220    1.0000 </r>
       <r>    4.6696    1.0000 </r>
       <r>    5.0911    1.0000 </r>
       <r>    5.3200    1.0000 </r>
       <r>    5.8361    1.0000 </r>
       <r>    5.8700    1.0000 </r>
       <r>    5.9509    1.0000 </r>
       <r>    6.1881    1.0000 </r>
       <r>    6.6215    1.0000 </r>
       <r>    7.0547    0.9991 </r>
       <r>    7.9650    0.0033 </r>
       <r>    7.9675    0.0035 </r>
       <r>   13.7027    0.0000 </r>
       <r>   14.2112    0.0000 </r>
      </set>
      <set comment="kpoint 19">
       <r>    0.2347    1.0000 </r>
       <r>    0.5907    1.0000 </r>
       <r>    2.1581    1.0000 </r>
       <r>    2.1650    1.0000 </r>
       <r>    2.3215    1.0000 </r>
       <r>    2.5276    1.0000 </r>
       <r>    2.9670    1.0000 </r>
       <r>    3.0027    1.0000 </r>
       <r>    3.3367    1.0000 </r>
       <r>    3.3981    1.0000 </r>
       <r>    4.5514    1.0000 </r>
       <r>    4.5550    1.0000 </r>
       <r>    5.3597    1.0000 </r>
       <r>    5.5587    1.0000 </r>
       <r>    5.6478    1.0000 </r>
       <r>    5.7213    1.0000 </r>
       <r>    5.7336    1.0000 </r>
       <r>    5.8554    1.0000 </r>
       <r>    6.7596    1.0000 </r>
       <r>    6.9043    1.0000 </r>
       <r>    7.9658    0.0033 </r>
       <r>    7.9666    0.0034 </r>
       <r>   13.9462    0.0000 </r>
       <r>   14.1049    0.0000 </r>
      </set>
      <set comment="kpoint 20">
       <r>   -1.9343    1.0000 </r>
       <r>    0.9819    1.0000 </r>
       <r>    0.9819    1.0000 </r>
       <r>    1.0151    1.0000 </r>
       <r>    1.3968    1.0000 </r>
       <r>    1.3968    1.0000 </r>
       <r>    1.4642    1.0000 </r>
       <r>    3.7329    1.0000 </r>
       <r>    4.0732    1.0000 </r>
       <r>    4.1137    1.0000 </r>
       <r>    5.8397    1.0000 </r>
       <r>    6.0427    1.0000 </r>
       <r>    6.4891    1.0000 </r>
       <r>    6.5417    1.0000 </r>
       <r>    6.5417    1.0000 </r>
       <r>    7.1901    0.9951 </r>
       <r>    7.3533    1.0341 </r>
       <r>    7.3533    1.0341 </r>
       <r>    7.8298   -0.0427 </r>
       <r>    7.8298   -0.0427 </r>
       <r>    7.9113   -0.0075 </r>
       <r>    9.8044    0.0000 </r>
       <r>    9.8044    0.0000 </r>
       <r>   11.4096    0.0000 </r>
      </set>
      <set comment="kpoint 21">
       <r>   -1.7452    1.0000 </r>
       <r>    1.0481    1.0000 </r>
       <r>    1.1226    1.0000 </r>
       <r>    1.1237    1.0000 </r>
       <r>    1.4736    1.0000 </r>
       <r>    1.5177    1.0000 </r>
       <r>    1.6040    1.0000 </r>
       <r>    3.6407    1.0000 </r>
       <r>    4.1538    1.0000 </r>
       <r>    4.1913    1.0000 </r>
       <r>    5.7429    1.0000 </r>
       <r>    5.9833    1.0000 </r>
       <r>    6.0787    1.0000 </r>
       <r>    6.0879    1.0000 </r>
       <r>    6.1970    1.0000 </r>
       <r>    7.0164    0.9996 </r>
       <r>    7.1830    0.9952 </r>
       <r>    7.2552    0.9990 </r>
       <r>    7.6391    0.3043 </r>
       <r>    7.8210   -0.0461 </r>
       <r>    7.8609   -0.0283 </r>
       <r>    9.2103    0.0000 </r>
       <r>   10.4185    0.0000 </r>
       <r>   11.9740    0.0000 </r>
      </set>
      <set comment="kpoint 22">
       <r>   -1.4978    1.0000 </r>
       <r>    1.1192    1.0000 </r>
       <r>    1.2669    1.0000 </r>
       <r>    1.3017    1.0000 </r>
       <r>    1.5743    1.0000 </r>
       <r>    1.6780    1.0000 </r>
       <r>    1.7818    1.0000 </r>
       <r>    3.5091    1.0000 </r>
       <r>    4.2760    1.0000 </r>
       <r>    4.2895    1.0000 </r>
       <r>    5.4423    1.0000 </r>
       <r>    5.6069    1.0000 </r>
       <r>    5.6203    1.0000 </r>
       <r>    5.7947    1.0000 </r>
       <r>    6.1689    1.0000 </r>
       <r>    6.7972    1.0000 </r>
       <r>    6.9615    0.9999 </r>
       <r>    7.0782    0.9986 </r>
       <r>    7.4276    1.0484 </r>
       <r>    7.8142   -0.0483 </r>
       <r>    7.8307   -0.0423 </r>
       <r>    8.6432    0.0000 </r>
       <r>   11.0221    0.0000 </r>
       <r>   12.5927    0.0000 </r>
      </set>
      <set comment="kpoint 23">
       <r>   -1.1971    1.0000 </r>
       <r>    1.1763    1.0000 </r>
       <r>    1.4423    1.0000 </r>
       <r>    1.5105    1.0000 </r>
       <r>    1.6976    1.0000 </r>
       <r>    1.8765    1.0000 </r>
       <r>    1.9892    1.0000 </r>
       <r>    3.3486    1.0000 </r>
       <r>    4.3965    1.0000 </r>
       <r>    4.4352    1.0000 </r>
       <r>    4.9261    1.0000 </r>
       <r>    5.1476    1.0000 </r>
       <r>    5.3675    1.0000 </r>
       <r>    5.4608    1.0000 </r>
       <r>    6.2745    1.0000 </r>
       <r>    6.5436    1.0000 </r>
       <r>    6.7016    1.0000 </r>
       <r>    6.8302    1.0000 </r>
       <r>    7.1944    0.9951 </r>
       <r>    7.8092   -0.0496 </r>
       <r>    7.8132   -0.0485 </r>
       <r>    8.1545    0.0008 </r>
       <r>   11.5959    0.0000 </r>
       <r>   13.2324    0.0000 </r>
      </set>
      <set comment="kpoint 24">
       <r>   -0.8504    1.0000 </r>
       <r>    1.1916    1.0000 </r>
       <r>    1.6450    1.0000 </r>
       <r>    1.7358    1.0000 </r>
       <r>    1.8414    1.0000 </r>
       <r>    2.1115    1.0000 </r>
       <r>    2.2148    1.0000 </r>
       <r>    3.1675    1.0000 </r>
       <r>    4.4401    1.0000 </r>
       <r>    4.4881    1.0000 </r>
       <r>    4.6253    1.0000 </r>
       <r>    4.6800    1.0000 </r>
       <r>    4.9620    1.0000 </r>
       <r>    5.3459    1.0000 </r>
       <r>    6.2764    1.0000 </r>
       <r>    6.3997    1.0000 </r>
       <r>    6.4225    1.0000 </r>
       <r>    6.5406    1.0000 </r>
       <r>    6.9164    1.0000 </r>
       <r>    7.7701   -0.0466 </r>
       <r>    7.8035   -0.0507 </r>
       <r>    7.8053   -0.0504 </r>
       <r>   12.1201    0.0000 </r>
       <r>   13.8217    0.0000 </r>
      </set>
      <set comment="kpoint 25">
       <r>   -0.4684    1.0000 </r>
       <r>    1.1298    1.0000 </r>
       <r>    1.8642    1.0000 </r>
       <r>    1.9571    1.0000 </r>
       <r>    2.0035    1.0000 </r>
       <r>    2.3803    1.0000 </r>
       <r>    2.4450    1.0000 </r>
       <r>    2.9731    1.0000 </r>
       <r>    3.9894    1.0000 </r>
       <r>    4.2286    1.0000 </r>
       <r>    4.5148    1.0000 </r>
       <r>    4.6331    1.0000 </r>
       <r>    4.8435    1.0000 </r>
       <r>    5.3277    1.0000 </r>
       <r>    6.0265    1.0000 </r>
       <r>    6.1505    1.0000 </r>
       <r>    6.2350    1.0000 </r>
       <r>    6.5415    1.0000 </r>
       <r>    6.5952    1.0000 </r>
       <r>    7.4801    0.9893 </r>
       <r>    7.7986   -0.0514 </r>
       <r>    7.8022   -0.0509 </r>
       <r>   12.5750    0.0000 </r>
       <r>   13.8755    0.0000 </r>
      </set>
      <set comment="kpoint 26">
       <r>   -0.0673    1.0000 </r>
       <r>    0.9617    1.0000 </r>
       <r>    2.0739    1.0000 </r>
       <r>    2.1416    1.0000 </r>
       <r>    2.1812    1.0000 </r>
       <r>    2.6720    1.0000 </r>
       <r>    2.6807    1.0000 </r>
       <r>    2.7718    1.0000 </r>
       <r>    3.5821    1.0000 </r>
       <r>    3.8013    1.0000 </r>
       <r>    4.4259    1.0000 </r>
       <r>    4.4593    1.0000 </r>
       <r>    5.0862    1.0000 </r>
       <r>    5.4445    1.0000 </r>
       <r>    5.8339    1.0000 </r>
       <r>    5.9202    1.0000 </r>
       <r>    5.9292    1.0000 </r>
       <r>    6.2611    1.0000 </r>
       <r>    6.6977    1.0000 </r>
       <r>    7.2493    0.9981 </r>
       <r>    7.7966   -0.0515 </r>
       <r>    7.7996   -0.0512 </r>
       <r>   12.9477    0.0000 </r>
       <r>   13.6841    0.0000 </r>
      </set>
      <set comment="kpoint 27">
       <r>    0.3287    1.0000 </r>
       <r>    0.6850    1.0000 </r>
       <r>    2.2201    1.0000 </r>
       <r>    2.2437    1.0000 </r>
       <r>    2.3711    1.0000 </r>
       <r>    2.5694    1.0000 </r>
       <r>    2.9088    1.0000 </r>
       <r>    2.9968    1.0000 </r>
       <r>    3.2445    1.0000 </r>
       <r>    3.4069    1.0000 </r>
       <r>    4.3515    1.0000 </r>
       <r>    4.3809    1.0000 </r>
       <r>    5.3502    1.0000 </r>
       <r>    5.6324    1.0000 </r>
       <r>    5.6630    1.0000 </r>
       <r>    5.7407    1.0000 </r>
       <r>    5.7721    1.0000 </r>
       <r>    5.9433    1.0000 </r>
       <r>    6.8668    1.0000 </r>
       <r>    7.0492    0.9992 </r>
       <r>    7.7965   -0.0515 </r>
       <r>    7.7977   -0.0514 </r>
       <r>   13.2415    0.0000 </r>
       <r>   13.4774    0.0000 </r>
      </set>
      <set comment="kpoint 28">
       <r>   -1.5611    1.0000 </r>
       <r>    1.1914    1.0000 </r>
       <r>    1.1914    1.0000 </r>
       <r>    1.2096    1.0000 </r>
       <r>    1.5913    1.0000 </r>
       <r>    1.5913    1.0000 </r>
       <r>    1.7527    1.0000 </r>
       <r>    3.5804    1.0000 </r>
       <r>    4.2098    1.0000 </r>
       <r>    4.2460    1.0000 </r>
       <r>    5.6564    1.0000 </r>
       <r>    5.6564    1.0000 </r>
       <r>    5.6911    1.0000 </r>
       <r>    5.7779    1.0000 </r>
       <r>    6.1164    1.0000 </r>
       <r>    6.8625    1.0000 </r>
       <r>    7.1163    0.9974 </r>
       <r>    7.1163    0.9974 </r>
       <r>    7.6163    0.4197 </r>
       <r>    7.6163    0.4197 </r>
       <r>    7.7608   -0.0410 </r>
       <r>    9.7970    0.0000 </r>
       <r>    9.7970    0.0000 </r>
       <r>   12.4851    0.0000 </r>
      </set>
      <set comment="kpoint 29">
       <r>   -1.3205    1.0000 </r>
       <r>    1.2656    1.0000 </r>
       <r>    1.3291    1.0000 </r>
       <r>    1.3743    1.0000 </r>
       <r>    1.6878    1.0000 </r>
       <r>    1.7473    1.0000 </r>
       <r>    1.9353    1.0000 </r>
       <r>    3.4786    1.0000 </r>
       <r>    4.3104    1.0000 </r>
       <r>    4.3136    1.0000 </r>
       <r>    5.1377    1.0000 </r>
       <r>    5.2889    1.0000 </r>
       <r>    5.4107    1.0000 </r>
       <r>    5.5908    1.0000 </r>
       <r>    6.1995    1.0000 </r>
       <r>    6.6686    1.0000 </r>
       <r>    6.9248    1.0000 </r>
       <r>    6.9761    0.9998 </r>
       <r>    7.3819    1.0463 </r>
       <r>    7.5997    0.5071 </r>
       <r>    7.6871    0.1042 </r>
       <r>    9.1987    0.0000 </r>
       <r>   10.3674    0.0000 </r>
       <r>   13.0594    0.0000 </r>
      </set>
      <set comment="kpoint 30">
       <r>   -1.0280    1.0000 </r>
       <r>    1.3257    1.0000 </r>
       <r>    1.4827    1.0000 </r>
       <r>    1.5884    1.0000 </r>
       <r>    1.8056    1.0000 </r>
       <r>    1.9403    1.0000 </r>
       <r>    2.1402    1.0000 </r>
       <r>    3.3423    1.0000 </r>
       <r>    4.3781    1.0000 </r>
       <r>    4.4562    1.0000 </r>
       <r>    4.6460    1.0000 </r>
       <r>    4.9130    1.0000 </r>
       <r>    5.0071    1.0000 </r>
       <r>    5.4750    1.0000 </r>
       <r>    6.3232    1.0000 </r>
       <r>    6.4434    1.0000 </r>
       <r>    6.6921    1.0000 </r>
       <r>    6.7609    1.0000 </r>
       <r>    7.1306    0.9969 </r>
       <r>    7.5883    0.5674 </r>
       <r>    7.6375    0.3121 </r>
       <r>    8.6663    0.0000 </r>
       <r>   10.9069    0.0000 </r>
       <r>   13.6309    0.0000 </r>
      </set>
      <set comment="kpoint 31">
       <r>   -0.6905    1.0000 </r>
       <r>    1.3420    1.0000 </r>
       <r>    1.6686    1.0000 </r>
       <r>    1.8215    1.0000 </r>
       <r>    1.9427    1.0000 </r>
       <r>    2.1680    1.0000 </r>
       <r>    2.3519    1.0000 </r>
       <r>    3.1813    1.0000 </r>
       <r>    4.1858    1.0000 </r>
       <r>    4.4178    1.0000 </r>
       <r>    4.5695    1.0000 </r>
       <r>    4.5910    1.0000 </r>
       <r>    4.6370    1.0000 </r>
       <r>    5.3904    1.0000 </r>
       <r>    6.2047    1.0000 </r>
       <r>    6.4358    1.0000 </r>
       <r>    6.4761    1.0000 </r>
       <r>    6.4925    1.0000 </r>
       <r>    6.8573    1.0000 </r>
       <r>    7.5802    0.6092 </r>
       <r>    7.6058    0.4749 </r>
       <r>    8.2189    0.0002 </r>
       <r>   11.4018    0.0000 </r>
       <r>   13.5857    0.0000 </r>
      </set>
      <set comment="kpoint 32">
       <r>   -0.3180    1.0000 </r>
       <r>    1.2775    1.0000 </r>
       <r>    1.8817    1.0000 </r>
       <r>    2.0543    1.0000 </r>
       <r>    2.0966    1.0000 </r>
       <r>    2.4263    1.0000 </r>
       <r>    2.5497    1.0000 </r>
       <r>    3.0042    1.0000 </r>
       <r>    3.7635    1.0000 </r>
       <r>    4.1790    1.0000 </r>
       <r>    4.3070    1.0000 </r>
       <r>    4.3969    1.0000 </r>
       <r>    4.8483    1.0000 </r>
       <r>    5.3907    1.0000 </r>
       <r>    5.9822    1.0000 </r>
       <r>    6.1793    1.0000 </r>
       <r>    6.2000    1.0000 </r>
       <r>    6.5595    1.0000 </r>
       <r>    6.6516    1.0000 </r>
       <r>    7.5746    0.6383 </r>
       <r>    7.5865    0.5765 </r>
       <r>    7.8538   -0.0317 </r>
       <r>   11.8397    0.0000 </r>
       <r>   13.3120    0.0000 </r>
      </set>
      <set comment="kpoint 33">
       <r>    0.0747    1.0000 </r>
       <r>    1.1031    1.0000 </r>
       <r>    2.1075    1.0000 </r>
       <r>    2.2530    1.0000 </r>
       <r>    2.2646    1.0000 </r>
       <r>    2.7091    1.0000 </r>
       <r>    2.7128    1.0000 </r>
       <r>    2.8182    1.0000 </r>
       <r>    3.3929    1.0000 </r>
       <r>    3.7828    1.0000 </r>
       <r>    4.1636    1.0000 </r>
       <r>    4.3127    1.0000 </r>
       <r>    5.0849    1.0000 </r>
       <r>    5.4999    1.0000 </r>
       <r>    5.8162    1.0000 </r>
       <r>    5.9040    1.0000 </r>
       <r>    5.9540    1.0000 </r>
       <r>    6.2516    1.0000 </r>
       <r>    6.8464    1.0000 </r>
       <r>    7.5519    0.7481 </r>
       <r>    7.5709    0.6569 </r>
       <r>    7.5757    0.6325 </r>
       <r>   12.2148    0.0000 </r>
       <r>   13.0558    0.0000 </r>
      </set>
      <set comment="kpoint 34">
       <r>    0.4652    1.0000 </r>
       <r>    0.8214    1.0000 </r>
       <r>    2.2998    1.0000 </r>
       <r>    2.3586    1.0000 </r>
       <r>    2.4436    1.0000 </r>
       <r>    2.6296    1.0000 </r>
       <r>    2.8470    1.0000 </r>
       <r>    2.9533    1.0000 </r>
       <r>    3.1609    1.0000 </r>
       <r>    3.4145    1.0000 </r>
       <r>    4.1422    1.0000 </r>
       <r>    4.2089    1.0000 </r>
       <r>    5.3419    1.0000 </r>
       <r>    5.6161    1.0000 </r>
       <r>    5.6981    1.0000 </r>
       <r>    5.7479    1.0000 </r>
       <r>    5.7982    1.0000 </r>
       <r>    5.9567    1.0000 </r>
       <r>    7.0592    0.9990 </r>
       <r>    7.2919    1.0078 </r>
       <r>    7.5693    0.6646 </r>
       <r>    7.5706    0.6585 </r>
       <r>   12.5308    0.0000 </r>
       <r>   12.8035    0.0000 </r>
      </set>
      <set comment="kpoint 35">
       <r>   -1.0888    1.0000 </r>
       <r>    1.4235    1.0000 </r>
       <r>    1.4530    1.0000 </r>
       <r>    1.4530    1.0000 </r>
       <r>    1.8381    1.0000 </r>
       <r>    1.8381    1.0000 </r>
       <r>    2.1177    1.0000 </r>
       <r>    3.4144    1.0000 </r>
       <r>    4.3408    1.0000 </r>
       <r>    4.3870    1.0000 </r>
       <r>    4.8038    1.0000 </r>
       <r>    4.8038    1.0000 </r>
       <r>    5.1369    1.0000 </r>
       <r>    5.5279    1.0000 </r>
       <r>    6.2906    1.0000 </r>
       <r>    6.5033    1.0000 </r>
       <r>    6.8213    1.0000 </r>
       <r>    6.8213    1.0000 </r>
       <r>    7.3481    1.0316 </r>
       <r>    7.3481    1.0316 </r>
       <r>    7.5639    0.6914 </r>
       <r>    9.7390    0.0000 </r>
       <r>    9.7390    0.0000 </r>
       <r>   13.5668    0.0000 </r>
      </set>
      <set comment="kpoint 36">
       <r>   -0.8072    1.0000 </r>
       <r>    1.5172    1.0000 </r>
       <r>    1.5519    1.0000 </r>
       <r>    1.6735    1.0000 </r>
       <r>    1.9487    1.0000 </r>
       <r>    2.0241    1.0000 </r>
       <r>    2.3157    1.0000 </r>
       <r>    3.3145    1.0000 </r>
       <r>    4.3446    1.0000 </r>
       <r>    4.3641    1.0000 </r>
       <r>    4.4731    1.0000 </r>
       <r>    4.5075    1.0000 </r>
       <r>    4.8154    1.0000 </r>
       <r>    5.4406    1.0000 </r>
       <r>    6.3093    1.0000 </r>
       <r>    6.4363    1.0000 </r>
       <r>    6.6214    1.0000 </r>
       <r>    6.6455    1.0000 </r>
       <r>    7.0759    0.9986 </r>
       <r>    7.3263    1.0213 </r>
       <r>    7.4694    1.0087 </r>
       <r>    9.1730    0.0000 </r>
       <r>   10.2523    0.0000 </r>
       <r>   13.4156    0.0000 </r>
      </set>
      <set comment="kpoint 37">
       <r>   -0.4822    1.0000 </r>
       <r>    1.5346    1.0000 </r>
       <r>    1.7145    1.0000 </r>
       <r>    1.9161    1.0000 </r>
       <r>    2.0767    1.0000 </r>
       <r>    2.2428    1.0000 </r>
       <r>    2.5113    1.0000 </r>
       <r>    3.1852    1.0000 </r>
       <r>    3.9158    1.0000 </r>
       <r>    4.1859    1.0000 </r>
       <r>    4.3604    1.0000 </r>
       <r>    4.4660    1.0000 </r>
       <r>    4.6697    1.0000 </r>
       <r>    5.3748    1.0000 </r>
       <r>    6.1021    1.0000 </r>
       <r>    6.3929    1.0000 </r>
       <r>    6.4101    1.0000 </r>
       <r>    6.6213    1.0000 </r>
       <r>    6.7900    1.0000 </r>
       <r>    7.3126    1.0154 </r>
       <r>    7.4020    1.0512 </r>
       <r>    8.6841    0.0000 </r>
       <r>   10.7273    0.0000 </r>
       <r>   13.0524    0.0000 </r>
      </set>
      <set comment="kpoint 38">
       <r>   -0.1230    1.0000 </r>
       <r>    1.4651    1.0000 </r>
       <r>    1.9101    1.0000 </r>
       <r>    2.1642    1.0000 </r>
       <r>    2.2192    1.0000 </r>
       <r>    2.4880    1.0000 </r>
       <r>    2.6788    1.0000 </r>
       <r>    3.0353    1.0000 </r>
       <r>    3.5240    1.0000 </r>
       <r>    3.9886    1.0000 </r>
       <r>    4.1067    1.0000 </r>
       <r>    4.3037    1.0000 </r>
       <r>    4.8664    1.0000 </r>
       <r>    5.3795    1.0000 </r>
       <r>    5.9092    1.0000 </r>
       <r>    6.1410    1.0000 </r>
       <r>    6.1580    1.0000 </r>
       <r>    6.4925    1.0000 </r>
       <r>    6.8347    1.0000 </r>
       <r>    7.3045    1.0122 </r>
       <r>    7.3566    1.0357 </r>
       <r>    8.2699    0.0001 </r>
       <r>   11.1553    0.0000 </r>
       <r>   12.7299    0.0000 </r>
      </set>
      <set comment="kpoint 39">
       <r>    0.2573    1.0000 </r>
       <r>    1.2812    1.0000 </r>
       <r>    2.1342    1.0000 </r>
       <r>    2.3735    1.0000 </r>
       <r>    2.3880    1.0000 </r>
       <r>    2.7420    1.0000 </r>
       <r>    2.7866    1.0000 </r>
       <r>    2.8727    1.0000 </r>
       <r>    3.1919    1.0000 </r>
       <r>    3.7527    1.0000 </r>
       <r>    3.9128    1.0000 </r>
       <r>    4.1924    1.0000 </r>
       <r>    5.0896    1.0000 </r>
       <r>    5.4786    1.0000 </r>
       <r>    5.7703    1.0000 </r>
       <r>    5.8629    1.0000 </r>
       <r>    5.9447    1.0000 </r>
       <r>    6.1928    1.0000 </r>
       <r>    7.0707    0.9987 </r>
       <r>    7.3012    1.0110 </r>
       <r>    7.3278    1.0220 </r>
       <r>    7.9165   -0.0059 </r>
       <r>   11.5321    0.0000 </r>
       <r>   12.4385    0.0000 </r>
      </set>
      <set comment="kpoint 40">
       <r>    0.6389    1.0000 </r>
       <r>    0.9932    1.0000 </r>
       <r>    2.3688    1.0000 </r>
       <r>    2.5048    1.0000 </r>
       <r>    2.5366    1.0000 </r>
       <r>    2.7045    1.0000 </r>
       <r>    2.8157    1.0000 </r>
       <r>    2.8377    1.0000 </r>
       <r>    3.1342    1.0000 </r>
       <r>    3.4177    1.0000 </r>
       <r>    3.9497    1.0000 </r>
       <r>    4.0590    1.0000 </r>
       <r>    5.3325    1.0000 </r>
       <r>    5.5911    1.0000 </r>
       <r>    5.6626    1.0000 </r>
       <r>    5.7245    1.0000 </r>
       <r>    5.7884    1.0000 </r>
       <r>    5.9087    1.0000 </r>
       <r>    7.3029    1.0116 </r>
       <r>    7.3110    1.0147 </r>
       <r>    7.3273    1.0218 </r>
       <r>    7.6067    0.4699 </r>
       <r>   11.8616    0.0000 </r>
       <r>   12.1569    0.0000 </r>
      </set>
      <set comment="kpoint 41">
       <r>   -0.5392    1.0000 </r>
       <r>    1.6526    1.0000 </r>
       <r>    1.7432    1.0000 </r>
       <r>    1.7432    1.0000 </r>
       <r>    2.1259    1.0000 </r>
       <r>    2.1259    1.0000 </r>
       <r>    2.5019    1.0000 </r>
       <r>    3.2575    1.0000 </r>
       <r>    4.0559    1.0000 </r>
       <r>    4.0559    1.0000 </r>
       <r>    4.3482    1.0000 </r>
       <r>    4.5772    1.0000 </r>
       <r>    4.5992    1.0000 </r>
       <r>    5.3729    1.0000 </r>
       <r>    6.1469    1.0000 </r>
       <r>    6.4814    1.0000 </r>
[...]
       <r>    8.1457    0.0010 </r>
       <r>    8.5617    0.0000 </r>
       <r>    8.5617    0.0000 </r>
       <r>    8.8814    0.0000 </r>
      </set>
      <set comment="kpoint 217">
       <r>    0.4864    1.0000 </r>
       <r>    0.6651    1.0000 </r>
       <r>    0.6651    1.0000 </r>
       <r>    0.6651    1.0000 </r>
       <r>    3.7294    1.0000 </r>
       <r>    3.7294    1.0000 </r>
       <r>    3.7294    1.0000 </r>
       <r>    3.9248    1.0000 </r>
       <r>    3.9248    1.0000 </r>
       <r>    4.0241    1.0000 </r>
       <r>    4.0241    1.0000 </r>
       <r>    4.0241    1.0000 </r>
       <r>    6.0405    1.0000 </r>
       <r>    6.0405    1.0000 </r>
       <r>    6.0405    1.0000 </r>
       <r>    6.3223    1.0000 </r>
       <r>    7.4417    1.0407 </r>
       <r>    7.4417    1.0407 </r>
       <r>    7.6535    0.2369 </r>
       <r>    7.6535    0.2369 </r>
       <r>    7.6535    0.2369 </r>
       <r>    8.8166    0.0000 </r>
       <r>    8.8166    0.0000 </r>
       <r>    8.8166    0.0000 </r>
      </set>
      <set comment="kpoint 218">
       <r>    0.5094    1.0000 </r>
       <r>    0.5691    1.0000 </r>
       <r>    0.6271    1.0000 </r>
       <r>    0.6271    1.0000 </r>
       <r>    3.7571    1.0000 </r>
       <r>    3.7571    1.0000 </r>
       <r>    3.8158    1.0000 </r>
       <r>    3.8818    1.0000 </r>
       <r>    3.9232    1.0000 </r>
       <r>    3.9565    1.0000 </r>
       <r>    3.9810    1.0000 </r>
       <r>    3.9810    1.0000 </r>
       <r>    6.2659    1.0000 </r>
       <r>    6.2659    1.0000 </r>
       <r>    6.3118    1.0000 </r>
       <r>    6.4712    1.0000 </r>
       <r>    7.5665    0.6785 </r>
       <r>    7.6237    0.3816 </r>
       <r>    7.6237    0.3816 </r>
       <r>    7.6382    0.3089 </r>
       <r>    7.6604    0.2065 </r>
       <r>    8.1888    0.0004 </r>
       <r>    8.7528    0.0000 </r>
       <r>    8.7528    0.0000 </r>
      </set>
      <set comment="kpoint 219">
       <r>    0.5101    1.0000 </r>
       <r>    0.5494    1.0000 </r>
       <r>    0.5494    1.0000 </r>
       <r>    0.5688    1.0000 </r>
       <r>    3.8057    1.0000 </r>
       <r>    3.8256    1.0000 </r>
       <r>    3.8256    1.0000 </r>
       <r>    3.8727    1.0000 </r>
       <r>    3.8972    1.0000 </r>
       <r>    3.9216    1.0000 </r>
       <r>    3.9216    1.0000 </r>
       <r>    3.9299    1.0000 </r>
       <r>    6.5426    1.0000 </r>
       <r>    6.5783    1.0000 </r>
       <r>    6.5783    1.0000 </r>
       <r>    6.7207    1.0000 </r>
       <r>    7.5365    0.8152 </r>
       <r>    7.6061    0.4732 </r>
       <r>    7.6061    0.4732 </r>
       <r>    7.6086    0.4599 </r>
       <r>    7.8438   -0.0365 </r>
       <r>    8.2382    0.0001 </r>
       <r>    8.2382    0.0001 </r>
       <r>    8.4445    0.0000 </r>
      </set>
      <set comment="kpoint 220">
       <r>    0.4896    1.0000 </r>
       <r>    0.5093    1.0000 </r>
       <r>    0.5093    1.0000 </r>
       <r>    0.5093    1.0000 </r>
       <r>    3.8504    1.0000 </r>
       <r>    3.8504    1.0000 </r>
       <r>    3.8504    1.0000 </r>
       <r>    3.8730    1.0000 </r>
       <r>    3.8730    1.0000 </r>
       <r>    3.8840    1.0000 </r>
       <r>    3.8840    1.0000 </r>
       <r>    3.8840    1.0000 </r>
       <r>    6.9524    0.9999 </r>
       <r>    6.9524    0.9999 </r>
       <r>    6.9524    0.9999 </r>
       <r>    7.1456    0.9963 </r>
       <r>    7.6178    0.4121 </r>
       <r>    7.6178    0.4121 </r>
       <r>    7.6422    0.2895 </r>
       <r>    7.6422    0.2895 </r>
       <r>    7.6422    0.2895 </r>
       <r>    7.9565    0.0023 </r>
       <r>    7.9565    0.0023 </r>
       <r>    7.9565    0.0023 </r>
      </set>
     </set>
    </set>
   </array>
  </eigenvalues>
  <separator name="orbital magnetization" >
   <v name="MAGDIPOLOUT">      0.00000000      0.00000000      0.00000000</v>
  </separator>
  <dos>
   <i name="efermi">      7.60105234 </i>
   <total>
    <array>
     <dimension dim="1">gridpoints</dimension>
     <dimension dim="2">spin</dimension>
     <field>energy</field>
     <field>total</field>
     <field>integrated</field>
     <set>
      <set comment="spin 1">
       <r>    -4.3238     0.0000     0.0000 </r>
       <r>    -4.2543     0.0000     0.0000 </r>
       <r>    -4.1848     0.0000     0.0000 </r>
       <r>    -4.1154     0.0000     0.0000 </r>
       <r>    -4.0459     0.0000     0.0000 </r>
       <r>    -3.9765     0.0000     0.0000 </r>
       <r>    -3.9070     0.0000     0.0000 </r>
       <r>    -3.8376     0.0000     0.0000 </r>
       <r>    -3.7681     0.0000     0.0000 </r>
       <r>    -3.6987     0.0000     0.0000 </r>
       <r>    -3.6292     0.0000     0.0000 </r>
       <r>    -3.5598     0.0000     0.0000 </r>
       <r>    -3.4903     0.0000     0.0000 </r>
       <r>    -3.4209     0.0000     0.0000 </r>
       <r>    -3.3514     0.0000     0.0000 </r>
       <r>    -3.2820     0.0000     0.0000 </r>
       <r>    -3.2125     0.0000     0.0000 </r>
       <r>    -3.1431     0.0000     0.0000 </r>
       <r>    -3.0736     0.0000     0.0000 </r>
       <r>    -3.0042     0.0000     0.0000 </r>
       <r>    -2.9347     0.0000     0.0000 </r>
       <r>    -2.8653     0.0000     0.0000 </r>
       <r>    -2.7958     0.0002     0.0000 </r>
       <r>    -2.7264     0.0004     0.0000 </r>
       <r>    -2.6569     0.0003     0.0001 </r>
       <r>    -2.5875    -0.0007     0.0000 </r>
       <r>    -2.5180    -0.0029    -0.0002 </r>
       <r>    -2.4486    -0.0031    -0.0004 </r>
       <r>    -2.3791     0.0057    -0.0000 </r>
       <r>    -2.3097     0.0286     0.0020 </r>
       <r>    -2.2402     0.0622     0.0063 </r>
       <r>    -2.1708     0.0964     0.0130 </r>
       <r>    -2.1013     0.1231     0.0215 </r>
       <r>    -2.0319     0.1430     0.0315 </r>
       <r>    -1.9624     0.1619     0.0427 </r>
       <r>    -1.8930     0.1802     0.0552 </r>
       <r>    -1.8235     0.1930     0.0686 </r>
       <r>    -1.7541     0.2043     0.0828 </r>
       <r>    -1.6846     0.2233     0.0983 </r>
       <r>    -1.6151     0.2461     0.1154 </r>
       <r>    -1.5457     0.2579     0.1333 </r>
       <r>    -1.4762     0.2581     0.1513 </r>
       <r>    -1.4068     0.2684     0.1699 </r>
       <r>    -1.3373     0.3009     0.1908 </r>
       <r>    -1.2679     0.3302     0.2137 </r>
       <r>    -1.1984     0.3295     0.2366 </r>
       <r>    -1.1290     0.3186     0.2587 </r>
       <r>    -1.0595     0.3356     0.2820 </r>
       <r>    -0.9901     0.3759     0.3082 </r>
       <r>    -0.9206     0.4050     0.3363 </r>
       <r>    -0.8512     0.4130     0.3650 </r>
       <r>    -0.7817     0.4131     0.3937 </r>
       <r>    -0.7123     0.4136     0.4224 </r>
       <r>    -0.6428     0.4280     0.4521 </r>
       <r>    -0.5734     0.4724     0.4849 </r>
       <r>    -0.5039     0.5274     0.5215 </r>
       <r>    -0.4345     0.5433     0.5593 </r>
       <r>    -0.3650     0.5144     0.5950 </r>
       <r>    -0.2956     0.5062     0.6302 </r>
       <r>    -0.2261     0.5662     0.6695 </r>
       <r>    -0.1567     0.6479     0.7145 </r>
       <r>    -0.0872     0.6776     0.7615 </r>
       <r>    -0.0178     0.6678     0.8079 </r>
       <r>     0.0517     0.6900     0.8558 </r>
       <r>     0.1211     0.7527     0.9081 </r>
       <r>     0.1906     0.8025     0.9639 </r>
       <r>     0.2600     0.8402     1.0222 </r>
       <r>     0.3295     0.9323     1.0870 </r>
       <r>     0.3989     1.1253     1.1651 </r>
       <r>     0.4684     1.4146     1.2634 </r>
       <r>     0.5378     1.7549     1.3852 </r>
       <r>     0.6073     2.0627     1.5285 </r>
       <r>     0.6767     2.2605     1.6855 </r>
       <r>     0.7462     2.3707     1.8501 </r>
       <r>     0.8156     2.5295     2.0258 </r>
       <r>     0.8851     2.8375     2.2229 </r>
       <r>     0.9546     3.2354     2.4476 </r>
       <r>     1.0240     3.5942     2.6972 </r>
       <r>     1.0935     3.8817     2.9668 </r>
       <r>     1.1629     4.1767     3.2569 </r>
       <r>     1.2324     4.5417     3.5723 </r>
       <r>     1.3018     4.9588     3.9167 </r>
       <r>     1.3713     5.3751     4.2900 </r>
       <r>     1.4407     5.7257     4.6877 </r>
       <r>     1.5102     5.9312     5.0996 </r>
       <r>     1.5796     5.9635     5.5138 </r>
       <r>     1.6491     5.8751     5.9218 </r>
       <r>     1.7185     5.7184     6.3189 </r>
       <r>     1.7880     5.5328     6.7032 </r>
       <r>     1.8574     5.3800     7.0769 </r>
       <r>     1.9269     5.2698     7.4429 </r>
       <r>     1.9963     5.1887     7.8032 </r>
       <r>     2.0658     5.1821     8.1631 </r>
       <r>     2.1352     5.1869     8.5234 </r>
       <r>     2.2047     5.0122     8.8715 </r>
       <r>     2.2741     4.6512     9.1945 </r>
       <r>     2.3436     4.2553     9.4900 </r>
       <r>     2.4130     3.8607     9.7582 </r>
       <r>     2.4825     3.5376    10.0039 </r>
       <r>     2.5519     3.5751    10.2522 </r>
       <r>     2.6214     4.1289    10.5389 </r>
       <r>     2.6908     4.8662    10.8769 </r>
       <r>     2.7603     5.2885    11.2442 </r>
       <r>     2.8297     5.3246    11.6140 </r>
       <r>     2.8992     5.3050    11.9824 </r>
       <r>     2.9686     5.4259    12.3592 </r>
       <r>     3.0381     5.5884    12.7474 </r>
       <r>     3.1075     5.6732    13.1414 </r>
       <r>     3.1770     5.6618    13.5346 </r>
       <r>     3.2464     5.6264    13.9253 </r>
       <r>     3.3159     5.7242    14.3229 </r>
       <r>     3.3853     5.9853    14.7386 </r>
       <r>     3.4548     6.1845    15.1681 </r>
       <r>     3.5243     6.1447    15.5949 </r>
       <r>     3.5937     6.0199    16.0130 </r>
       <r>     3.6632     6.1163    16.4377 </r>
       <r>     3.7326     6.5043    16.8895 </r>
       <r>     3.8021     6.9290    17.3707 </r>
       <r>     3.8715     7.1487    17.8672 </r>
       <r>     3.9410     7.2275    18.3691 </r>
       <r>     4.0104     7.4044    18.8834 </r>
       <r>     4.0799     7.8407    19.4279 </r>
       <r>     4.1493     8.5725    20.0233 </r>
       <r>     4.2188     9.4654    20.6807 </r>
       <r>     4.2882    10.0749    21.3804 </r>
       <r>     4.3577     9.8362    22.0635 </r>
       <r>     4.4271     8.6557    22.6647 </r>
       <r>     4.4966     7.1635    23.1622 </r>
       <r>     4.5660     6.1253    23.5876 </r>
       <r>     4.6355     5.6985    23.9834 </r>
       <r>     4.7049     5.4960    24.3651 </r>
       <r>     4.7744     5.2258    24.7280 </r>
       <r>     4.8438     4.9187    25.0696 </r>
       <r>     4.9133     4.6720    25.3941 </r>
       <r>     4.9827     4.5424    25.7096 </r>
       <r>     5.0522     4.5560    26.0260 </r>
       <r>     5.1216     4.6074    26.3460 </r>
       <r>     5.1911     4.5883    26.6647 </r>
       <r>     5.2605     4.6312    26.9863 </r>
       <r>     5.3300     4.8994    27.3266 </r>
       <r>     5.3994     5.2646    27.6922 </r>
       <r>     5.4689     5.5125    28.0751 </r>
       <r>     5.5383     5.7066    28.4714 </r>
       <r>     5.6078     6.0528    28.8918 </r>
       <r>     5.6772     6.4862    29.3423 </r>
       <r>     5.7467     6.6862    29.8066 </r>
       <r>     5.8161     6.4760    30.2564 </r>
       <r>     5.8856     5.9642    30.6706 </r>
       <r>     5.9550     5.3945    31.0453 </r>
       <r>     6.0245     5.0403    31.3953 </r>
       <r>     6.0940     5.0255    31.7443 </r>
       <r>     6.1634     5.1500    32.1020 </r>
       <r>     6.2329     5.1086    32.4568 </r>
       <r>     6.3023     4.8589    32.7943 </r>
       <r>     6.3718     4.6085    33.1143 </r>
       <r>     6.4412     4.5233    33.4285 </r>
       <r>     6.5107     4.5758    33.7463 </r>
       <r>     6.5801     4.6107    34.0665 </r>
       <r>     6.6496     4.5248    34.3808 </r>
       <r>     6.7190     4.4250    34.6881 </r>
       <r>     6.7885     4.4916    35.0000 </r>
       <r>     6.8579     4.6806    35.3251 </r>
       <r>     6.9274     4.8123    35.6593 </r>
       <r>     6.9968     4.8587    35.9968 </r>
       <r>     7.0663     4.8859    36.3361 </r>
       <r>     7.1357     4.9511    36.6800 </r>
       <r>     7.2052     5.2165    37.0422 </r>
       <r>     7.2746     5.8252    37.4468 </r>
       <r>     7.3441     6.6341    37.9076 </r>
       <r>     7.4135     7.4064    38.4219 </r>
       <r>     7.4830     8.1049    38.9848 </r>
       <r>     7.5524     8.6089    39.5828 </r>
       <r>     7.6219     8.4900    40.1724 </r>
       <r>     7.6913     7.5711    40.6982 </r>
       <r>     7.7608     6.3211    41.1372 </r>
       <r>     7.8302     5.2788    41.5038 </r>
       <r>     7.8997     4.4860    41.8154 </r>
       <r>     7.9691     3.6848    42.0713 </r>
       <r>     8.0386     2.7526    42.2625 </r>
       <r>     8.1080     1.9015    42.3946 </r>
       <r>     8.1775     1.4782    42.4972 </r>
       <r>     8.2469     1.4700    42.5993 </r>
       <r>     8.3164     1.4359    42.6990 </r>
       <r>     8.3858     1.0971    42.7752 </r>
       <r>     8.4553     0.6999    42.8238 </r>
       <r>     8.5247     0.6442    42.8686 </r>
       <r>     8.5942     0.9916    42.9374 </r>
       <r>     8.6637     1.4203    43.0361 </r>
       <r>     8.7331     1.5517    43.1439 </r>
       <r>     8.8026     1.3086    43.2347 </r>
       <r>     8.8720     0.9509    43.3008 </r>
       <r>     8.9415     0.7768    43.3547 </r>
       <r>     9.0109     0.8841    43.4161 </r>
       <r>     9.0804     1.1553    43.4964 </r>
       <r>     9.1498     1.3526    43.5903 </r>
       <r>     9.2193     1.3069    43.6811 </r>
       <r>     9.2887     1.0889    43.7567 </r>
       <r>     9.3582     0.9337    43.8215 </r>
       <r>     9.4276     0.9758    43.8893 </r>
       <r>     9.4971     1.1191    43.9670 </r>
       <r>     9.5665     1.1870    44.0495 </r>
       <r>     9.6360     1.1457    44.1290 </r>
       <r>     9.7054     1.1156    44.2065 </r>
       <r>     9.7749     1.1717    44.2879 </r>
       <r>     9.8443     1.2279    44.3732 </r>
       <r>     9.9138     1.1695    44.4544 </r>
       <r>     9.9832     1.0194    44.5252 </r>
       <r>    10.0527     0.9108    44.5885 </r>
       <r>    10.1221     0.9505    44.6545 </r>
       <r>    10.1916     1.1180    44.7321 </r>
       <r>    10.2610     1.2601    44.8196 </r>
       <r>    10.3305     1.2290    44.9050 </r>
       <r>    10.3999     1.0700    44.9793 </r>
       <r>    10.4694     0.9902    45.0481 </r>
       <r>    10.5388     1.0875    45.1236 </r>
       <r>    10.6083     1.2103    45.2076 </r>
       <r>    10.6777     1.1677    45.2887 </r>
       <r>    10.7472     0.9781    45.3567 </r>
       <r>    10.8166     0.8240    45.4139 </r>
       <r>    10.8861     0.8463    45.4727 </r>
       <r>    10.9555     1.0277    45.5441 </r>
       <r>    11.0250     1.2159    45.6285 </r>
       <r>    11.0945     1.2596    45.7160 </r>
       <r>    11.1639     1.1468    45.7956 </r>
       <r>    11.2334     0.9841    45.8640 </r>
       <r>    11.3028     0.8731    45.9246 </r>
       <r>    11.3723     0.8526    45.9838 </r>
       <r>    11.4417     0.9208    46.0478 </r>
       <r>    11.5112     1.0407    46.1201 </r>
       <r>    11.5806     1.1130    46.1974 </r>
       <r>    11.6501     1.0411    46.2697 </r>
       <r>    11.7195     0.8743    46.3304 </r>
       <r>    11.7890     0.7866    46.3850 </r>
       <r>    11.8584     0.8624    46.4449 </r>
       <r>    11.9279     0.9918    46.5138 </r>
       <r>    11.9973     1.0235    46.5849 </r>
       <r>    12.0668     0.9550    46.6512 </r>
       <r>    12.1362     0.8972    46.7135 </r>
       <r>    12.2057     0.8937    46.7756 </r>
       <r>    12.2751     0.8826    46.8369 </r>
       <r>    12.3446     0.8242    46.8941 </r>
       <r>    12.4140     0.7668    46.9474 </r>
       <r>    12.4835     0.7618    47.0003 </r>
       <r>    12.5529     0.7964    47.0556 </r>
       <r>    12.6224     0.8411    47.1140 </r>
       <r>    12.6918     0.8829    47.1753 </r>
       <r>    12.7613     0.8828    47.2367 </r>
       <r>    12.8307     0.8056    47.2926 </r>
       <r>    12.9002     0.7060    47.3416 </r>
       <r>    12.9696     0.6946    47.3899 </r>
       <r>    13.0391     0.7897    47.4447 </r>
       <r>    13.1085     0.8698    47.5051 </r>
       <r>    13.1780     0.8276    47.5626 </r>
       <r>    13.2474     0.7109    47.6120 </r>
       <r>    13.3169     0.6361    47.6562 </r>
       <r>    13.3863     0.6232    47.6994 </r>
       <r>    13.4558     0.6063    47.7415 </r>
       <r>    13.5252     0.5558    47.7801 </r>
       <r>    13.5947     0.4943    47.8145 </r>
       <r>    13.6642     0.4268    47.8441 </r>
       <r>    13.7336     0.3463    47.8682 </r>
       <r>    13.8031     0.2754    47.8873 </r>
       <r>    13.8725     0.2344    47.9036 </r>
       <r>    13.9420     0.2125    47.9183 </r>
       <r>    14.0114     0.2016    47.9323 </r>
       <r>    14.0809     0.2025    47.9464 </r>
       <r>    14.1503     0.1917    47.9597 </r>
       <r>    14.2198     0.1425    47.9696 </r>
       <r>    14.2892     0.0776    47.9750 </r>
       <r>    14.3587     0.0509    47.9785 </r>
       <r>    14.4281     0.0758    47.9838 </r>
       <r>    14.4976     0.1045    47.9911 </r>
       <r>    14.5670     0.0910    47.9974 </r>
       <r>    14.6365     0.0445    48.0005 </r>
       <r>    14.7059     0.0053    48.0008 </r>
       <r>    14.7754    -0.0077    48.0003 </r>
       <r>    14.8448    -0.0049    48.0000 </r>
       <r>    14.9143    -0.0007    47.9999 </r>
       <r>    14.9837     0.0006    48.0000 </r>
       <r>    15.0532     0.0005    48.0000 </r>
       <r>    15.1226     0.0002    48.0000 </r>
       <r>    15.1921     0.0000    48.0000 </r>
       <r>    15.2615     0.0000    48.0000 </r>
       <r>    15.3310     0.0000    48.0000 </r>
       <r>    15.4004     0.0000    48.0000 </r>
       <r>    15.4699     0.0000    48.0000 </r>
       <r>    15.5393     0.0000    48.0000 </r>
       <r>    15.6088     0.0000    48.0000 </r>
       <r>    15.6782     0.0000    48.0000 </r>
       <r>    15.7477     0.0000    48.0000 </r>
       <r>    15.8171     0.0000    48.0000 </r>
       <r>    15.8866     0.0000    48.0000 </r>
       <r>    15.9560     0.0000    48.0000 </r>
       <r>    16.0255     0.0000    48.0000 </r>
       <r>    16.0949     0.0000    48.0000 </r>
       <r>    16.1644     0.0000    48.0000 </r>
       <r>    16.2339     0.0000    48.0000 </r>
       <r>    16.3033     0.0000    48.0000 </r>
       <r>    16.3728     0.0000    48.0000 </r>
       <r>    16.4422     0.0000    48.0000 </r>
       <r>    16.5117     0.0000    48.0000 </r>
      </set>
     </set>
    </array>
   </total>
  </dos>
 </calculation>
 <structure name="finalpos" >
  <crystal>
   <varray name="basis" >
    <v>       3.95000000       0.00000000       0.00000000 </v>
    <v>       0.00000000       3.95000000       0.00000000 </v>
    <v>       0.00000000       0.00000000       3.95000000 </v>
   </varray>
   <i name="volume">     61.62987500 </i>
   <varray name="rec_basis" >
    <v>       0.25316456       0.00000000       0.00000000 </v>
    <v>       0.00000000       0.25316456       0.00000000 </v>
    <v>       0.00000000       0.00000000       0.25316456 </v>
   </varray>
  </crystal>
  <varray name="positions" >
   <v>       0.00000000       0.00000000       0.00000000 </v>
   <v>       0.00000000       0.50000000       0.50000000 </v>
   <v>       0.50000000       0.00000000       0.50000000 </v>
   <v>       0.50000000       0.50000000       0.00000000 </v>
  </varray>
 </structure>
</modeling>
