This job started on
Tue Jan 22 15:09:45 CET 2019
 running on   16 total cores
 distrk:  each k-point on   16 cores,    1 groups
 distr:  one band on    8 cores,    2 groups
 using from now: INCAR     
 vasp.5.4.4.18Apr17-6-g9f103f2a35 (build Apr 17 2018 18:25:23) complex          
  
 POSCAR found :  1 types and       4 ions

 ----------------------------------------------------------------------------- 
|                                                                             |
|  ADVICE TO THIS USER RUNNING 'VASP/VAMP'   (HEAR YOUR MASTER'S VOICE ...):  |
|                                                                             |
|      You enforced a specific xc-type in the INCAR file,                     |
|      a different type was found on the POTCAR file                          |
|          I HOPE YOU KNOW, WHAT YOU ARE  DOING                               |
|                                                                             |
 ----------------------------------------------------------------------------- 

 LDA part: xc-table for Ceperly-Alder, standard interpolation
 POSCAR found :  1 types and       4 ions
 POSCAR, INCAR and KPOINTS ok, starting setup
 FFT: planning ...
 WAVECAR not read
 entering main loop
       N       E                     dE             d eps       ncg     rms          rms(c)
DAV:   1     0.448697556882E+03    0.44870E+03   -0.17308E+04 10576   0.151E+03
DAV:   2     0.350691403524E+01   -0.44519E+03   -0.43275E+03 10632   0.524E+02
DAV:   3    -0.250259950271E+02   -0.28533E+02   -0.27678E+02 14816   0.123E+02
DAV:   4    -0.258415832259E+02   -0.81559E+00   -0.81083E+00 11304   0.263E+01
DAV:   5    -0.258636802028E+02   -0.22097E-01   -0.22085E-01 12864   0.293E+00    0.767E+00
DAV:   6    -0.244047643821E+02    0.14589E+01   -0.33357E+00 12736   0.206E+01    0.231E+00
DAV:   7    -0.242514768776E+02    0.15329E+00   -0.47517E-01 15728   0.700E+00    0.522E-01
DAV:   8    -0.242347898093E+02    0.16687E-01   -0.19872E-02 11024   0.179E+00    0.104E-01
DAV:   9    -0.242344611600E+02    0.32865E-03   -0.18410E-03 13984   0.471E-01    0.228E-02
DAV:  10    -0.242344816442E+02   -0.20484E-04   -0.46774E-05 11696   0.385E-02    0.358E-03
DAV:  11    -0.242344843896E+02   -0.27454E-05   -0.14509E-06  8608   0.118E-02    0.755E-04
DAV:  12    -0.242344842557E+02    0.13396E-06   -0.24169E-07  5768   0.403E-03
   1 F= -.24234484E+02 E0= -.24233270E+02  d E =-.242345E+02
 curvature:   0.00 expect dE= 0.000E+00 dE for cont linesearch  0.000E+00
 trial: gam= 0.00000 g(F)=  0.321E-63 g(S)=  0.000E+00 ort = 0.000E+00 (trialstep = 0.100E+01)
 search vector abs. value=  0.100E-09
 reached required accuracy - stopping structural energy minimisation
 writing wavefunctions
This job finished on
Tue Jan 22 15:10:19 CET 2019
