<?xml version="1.0" encoding="ISO-8859-1"?>
<modeling>
 <generator>
  <i name="program" type="string">vasp </i>
  <i name="version" type="string">5.4.4.18Apr17-6-g9f103f2a35  </i>
  <i name="subversion" type="string">(build Apr 17 2018 18:25:23) complex            parallel </i>
  <i name="platform" type="string">LinuxIFC </i>
  <i name="date" type="string">2019 01 22 </i>
  <i name="time" type="string">15:09:47 </i>
 </generator>
 <incar>
  <i type="string" name="SYSTEM"> Pt bulk calculation</i>
  <i type="int" name="ISTART">     0</i>
  <i type="string" name="PREC">normal</i>
  <i type="string" name="ALGO"> NORMAL</i>
  <i type="int" name="ICHARG">     2</i>
  <i type="int" name="INIWAV">     1</i>
  <i type="int" name="NELMIN">    10</i>
  <i type="int" name="IBRION">     2</i>
  <i name="EDIFF">      0.00000100</i>
  <i name="EDIFFG">     -0.02000000</i>
  <i type="int" name="NSW">    10</i>
  <i name="ENCUT">    450.00000000</i>
  <i name="POTIM">      0.20000000</i>
  <i type="int" name="ISMEAR">     2</i>
  <i name="SIGMA">      0.20000000</i>
  <v type="int" name="KPOINT_BSE">    -1     0     0     0</v>
  <i type="string" name="GGA"> 91</i>
 </incar>
 <structure name="primitive_cell" >
  <crystal>
   <varray name="basis" >
    <v>       1.95500000       1.95500000       0.00000000 </v>
    <v>       1.95500000       0.00000000      -1.95500000 </v>
    <v>       0.00000000       1.95500000      -1.95500000 </v>
   </varray>
   <i name="volume">     14.94411775 </i>
   <varray name="rec_basis" >
    <v>       0.25575448       0.25575448       0.25575448 </v>
    <v>       0.25575448      -0.25575448      -0.25575448 </v>
    <v>      -0.25575448       0.25575448      -0.25575448 </v>
   </varray>
  </crystal>
  <varray name="positions" >
   <v>       0.00000000       0.00000000       0.00000000 </v>
  </varray>
 </structure>
 <varray name="primitive_index" >
  <v type="int" >        1 </v>
 </varray>
 <kpoints>
  <generation param="Monkhorst-Pack">
   <v type="int" name="divisions">      20       20       20 </v>
   <v name="usershift">      0.00000000       0.00000000       0.00000000 </v>
   <v name="genvec1">      0.05000000       0.00000000       0.00000000 </v>
   <v name="genvec2">      0.00000000       0.05000000       0.00000000 </v>
   <v name="genvec3">      0.00000000       0.00000000       0.05000000 </v>
   <v name="shift">      0.50000000       0.50000000       0.50000000 </v>
  </generation>
  <varray name="kpointlist" >
   <v>       0.02500000       0.02500000       0.02500000 </v>
   <v>       0.07500000       0.02500000       0.02500000 </v>
   <v>       0.12500000       0.02500000       0.02500000 </v>
   <v>       0.17500000       0.02500000       0.02500000 </v>
   <v>       0.22500000       0.02500000       0.02500000 </v>
   <v>       0.27500000       0.02500000       0.02500000 </v>
   <v>       0.32500000       0.02500000       0.02500000 </v>
   <v>       0.37500000       0.02500000       0.02500000 </v>
   <v>       0.42500000       0.02500000       0.02500000 </v>
   <v>       0.47500000       0.02500000       0.02500000 </v>
   <v>       0.07500000       0.07500000       0.02500000 </v>
   <v>       0.12500000       0.07500000       0.02500000 </v>
   <v>       0.17500000       0.07500000       0.02500000 </v>
   <v>       0.22500000       0.07500000       0.02500000 </v>
   <v>       0.27500000       0.07500000       0.02500000 </v>
   <v>       0.32500000       0.07500000       0.02500000 </v>
   <v>       0.37500000       0.07500000       0.02500000 </v>
   <v>       0.42500000       0.07500000       0.02500000 </v>
   <v>       0.47500000       0.07500000       0.02500000 </v>
   <v>       0.12500000       0.12500000       0.02500000 </v>
   <v>       0.17500000       0.12500000       0.02500000 </v>
   <v>       0.22500000       0.12500000       0.02500000 </v>
   <v>       0.27500000       0.12500000       0.02500000 </v>
   <v>       0.32500000       0.12500000       0.02500000 </v>
   <v>       0.37500000       0.12500000       0.02500000 </v>
   <v>       0.42500000       0.12500000       0.02500000 </v>
   <v>       0.47500000       0.12500000       0.02500000 </v>
   <v>       0.17500000       0.17500000       0.02500000 </v>
   <v>       0.22500000       0.17500000       0.02500000 </v>
   <v>       0.27500000       0.17500000       0.02500000 </v>
   <v>       0.32500000       0.17500000       0.02500000 </v>
   <v>       0.37500000       0.17500000       0.02500000 </v>
   <v>       0.42500000       0.17500000       0.02500000 </v>
   <v>       0.47500000       0.17500000       0.02500000 </v>
   <v>       0.22500000       0.22500000       0.02500000 </v>
   <v>       0.27500000       0.22500000       0.02500000 </v>
   <v>       0.32500000       0.22500000       0.02500000 </v>
   <v>       0.37500000       0.22500000       0.02500000 </v>
   <v>       0.42500000       0.22500000       0.02500000 </v>
   <v>       0.47500000       0.22500000       0.02500000 </v>
   <v>       0.27500000       0.27500000       0.02500000 </v>
   <v>       0.32500000       0.27500000       0.02500000 </v>
   <v>       0.37500000       0.27500000       0.02500000 </v>
   <v>       0.42500000       0.27500000       0.02500000 </v>
   <v>       0.47500000       0.27500000       0.02500000 </v>
   <v>       0.32500000       0.32500000       0.02500000 </v>
   <v>       0.37500000       0.32500000       0.02500000 </v>
   <v>       0.42500000       0.32500000       0.02500000 </v>
   <v>       0.47500000       0.32500000       0.02500000 </v>
   <v>       0.37500000       0.37500000       0.02500000 </v>
   <v>       0.42500000       0.37500000       0.02500000 </v>
   <v>       0.47500000       0.37500000       0.02500000 </v>
   <v>       0.42500000       0.42500000       0.02500000 </v>
   <v>       0.47500000       0.42500000       0.02500000 </v>
   <v>       0.47500000       0.47500000       0.02500000 </v>
   <v>       0.07500000       0.07500000       0.07500000 </v>
   <v>       0.12500000       0.07500000       0.07500000 </v>
   <v>       0.17500000       0.07500000       0.07500000 </v>
   <v>       0.22500000       0.07500000       0.07500000 </v>
   <v>       0.27500000       0.07500000       0.07500000 </v>
   <v>       0.32500000       0.07500000       0.07500000 </v>
   <v>       0.37500000       0.07500000       0.07500000 </v>
   <v>       0.42500000       0.07500000       0.07500000 </v>
   <v>       0.47500000       0.07500000       0.07500000 </v>
   <v>       0.12500000       0.12500000       0.07500000 </v>
   <v>       0.17500000       0.12500000       0.07500000 </v>
   <v>       0.22500000       0.12500000       0.07500000 </v>
   <v>       0.27500000       0.12500000       0.07500000 </v>
   <v>       0.32500000       0.12500000       0.07500000 </v>
   <v>       0.37500000       0.12500000       0.07500000 </v>
   <v>       0.42500000       0.12500000       0.07500000 </v>
   <v>       0.47500000       0.12500000       0.07500000 </v>
   <v>       0.17500000       0.17500000       0.07500000 </v>
   <v>       0.22500000       0.17500000       0.07500000 </v>
   <v>       0.27500000       0.17500000       0.07500000 </v>
   <v>       0.32500000       0.17500000       0.07500000 </v>
   <v>       0.37500000       0.17500000       0.07500000 </v>
   <v>       0.42500000       0.17500000       0.07500000 </v>
   <v>       0.47500000       0.17500000       0.07500000 </v>
   <v>       0.22500000       0.22500000       0.07500000 </v>
   <v>       0.27500000       0.22500000       0.07500000 </v>
   <v>       0.32500000       0.22500000       0.07500000 </v>
   <v>       0.37500000       0.22500000       0.07500000 </v>
   <v>       0.42500000       0.22500000       0.07500000 </v>
   <v>       0.47500000       0.22500000       0.07500000 </v>
   <v>       0.27500000       0.27500000       0.07500000 </v>
   <v>       0.32500000       0.27500000       0.07500000 </v>
   <v>       0.37500000       0.27500000       0.07500000 </v>
   <v>       0.42500000       0.27500000       0.07500000 </v>
   <v>       0.47500000       0.27500000       0.07500000 </v>
   <v>       0.32500000       0.32500000       0.07500000 </v>
   <v>       0.37500000       0.32500000       0.07500000 </v>
   <v>       0.42500000       0.32500000       0.07500000 </v>
   <v>       0.47500000       0.32500000       0.07500000 </v>
   <v>       0.37500000       0.37500000       0.07500000 </v>
   <v>       0.42500000       0.37500000       0.07500000 </v>
   <v>       0.47500000       0.37500000       0.07500000 </v>
   <v>       0.42500000       0.42500000       0.07500000 </v>
   <v>       0.47500000       0.42500000       0.07500000 </v>
   <v>       0.47500000       0.47500000       0.07500000 </v>
   <v>       0.12500000       0.12500000       0.12500000 </v>
   <v>       0.17500000       0.12500000       0.12500000 </v>
   <v>       0.22500000       0.12500000       0.12500000 </v>
   <v>       0.27500000       0.12500000       0.12500000 </v>
   <v>       0.32500000       0.12500000       0.12500000 </v>
   <v>       0.37500000       0.12500000       0.12500000 </v>
   <v>       0.42500000       0.12500000       0.12500000 </v>
   <v>       0.47500000       0.12500000       0.12500000 </v>
   <v>       0.17500000       0.17500000       0.12500000 </v>
   <v>       0.22500000       0.17500000       0.12500000 </v>
   <v>       0.27500000       0.17500000       0.12500000 </v>
   <v>       0.32500000       0.17500000       0.12500000 </v>
   <v>       0.37500000       0.17500000       0.12500000 </v>
   <v>       0.42500000       0.17500000       0.12500000 </v>
   <v>       0.47500000       0.17500000       0.12500000 </v>
   <v>       0.22500000       0.22500000       0.12500000 </v>
   <v>       0.27500000       0.22500000       0.12500000 </v>
   <v>       0.32500000       0.22500000       0.12500000 </v>
   <v>       0.37500000       0.22500000       0.12500000 </v>
   <v>       0.42500000       0.22500000       0.12500000 </v>
   <v>       0.47500000       0.22500000       0.12500000 </v>
   <v>       0.27500000       0.27500000       0.12500000 </v>
   <v>       0.32500000       0.27500000       0.12500000 </v>
   <v>       0.37500000       0.27500000       0.12500000 </v>
   <v>       0.42500000       0.27500000       0.12500000 </v>
   <v>       0.47500000       0.27500000       0.12500000 </v>
   <v>       0.32500000       0.32500000       0.12500000 </v>
   <v>       0.37500000       0.32500000       0.12500000 </v>
   <v>       0.42500000       0.32500000       0.12500000 </v>
   <v>       0.47500000       0.32500000       0.12500000 </v>
   <v>       0.37500000       0.37500000       0.12500000 </v>
   <v>       0.42500000       0.37500000       0.12500000 </v>
   <v>       0.47500000       0.37500000       0.12500000 </v>
   <v>       0.42500000       0.42500000       0.12500000 </v>
   <v>       0.47500000       0.42500000       0.12500000 </v>
   <v>       0.47500000       0.47500000       0.12500000 </v>
   <v>       0.17500000       0.17500000       0.17500000 </v>
   <v>       0.22500000       0.17500000       0.17500000 </v>
   <v>       0.27500000       0.17500000       0.17500000 </v>
   <v>       0.32500000       0.17500000       0.17500000 </v>
   <v>       0.37500000       0.17500000       0.17500000 </v>
   <v>       0.42500000       0.17500000       0.17500000 </v>
   <v>       0.47500000       0.17500000       0.17500000 </v>
   <v>       0.22500000       0.22500000       0.17500000 </v>
   <v>       0.27500000       0.22500000       0.17500000 </v>
   <v>       0.32500000       0.22500000       0.17500000 </v>
   <v>       0.37500000       0.22500000       0.17500000 </v>
   <v>       0.42500000       0.22500000       0.17500000 </v>
   <v>       0.47500000       0.22500000       0.17500000 </v>
   <v>       0.27500000       0.27500000       0.17500000 </v>
   <v>       0.32500000       0.27500000       0.17500000 </v>
   <v>       0.37500000       0.27500000       0.17500000 </v>
   <v>       0.42500000       0.27500000       0.17500000 </v>
   <v>       0.47500000       0.27500000       0.17500000 </v>
   <v>       0.32500000       0.32500000       0.17500000 </v>
   <v>       0.37500000       0.32500000       0.17500000 </v>
   <v>       0.42500000       0.32500000       0.17500000 </v>
   <v>       0.47500000       0.32500000       0.17500000 </v>
   <v>       0.37500000       0.37500000       0.17500000 </v>
   <v>       0.42500000       0.37500000       0.17500000 </v>
   <v>       0.47500000       0.37500000       0.17500000 </v>
   <v>       0.42500000       0.42500000       0.17500000 </v>
   <v>       0.47500000       0.42500000       0.17500000 </v>
   <v>       0.47500000       0.47500000       0.17500000 </v>
   <v>       0.22500000       0.22500000       0.22500000 </v>
   <v>       0.27500000       0.22500000       0.22500000 </v>
   <v>       0.32500000       0.22500000       0.22500000 </v>
   <v>       0.37500000       0.22500000       0.22500000 </v>
   <v>       0.42500000       0.22500000       0.22500000 </v>
   <v>       0.47500000       0.22500000       0.22500000 </v>
   <v>       0.27500000       0.27500000       0.22500000 </v>
   <v>       0.32500000       0.27500000       0.22500000 </v>
   <v>       0.37500000       0.27500000       0.22500000 </v>
   <v>       0.42500000       0.27500000       0.22500000 </v>
   <v>       0.47500000       0.27500000       0.22500000 </v>
   <v>       0.32500000       0.32500000       0.22500000 </v>
   <v>       0.37500000       0.32500000       0.22500000 </v>
   <v>       0.42500000       0.32500000       0.22500000 </v>
   <v>       0.47500000       0.32500000       0.22500000 </v>
   <v>       0.37500000       0.37500000       0.22500000 </v>
   <v>       0.42500000       0.37500000       0.22500000 </v>
   <v>       0.47500000       0.37500000       0.22500000 </v>
   <v>       0.42500000       0.42500000       0.22500000 </v>
   <v>       0.47500000       0.42500000       0.22500000 </v>
   <v>       0.47500000       0.47500000       0.22500000 </v>
   <v>       0.27500000       0.27500000       0.27500000 </v>
   <v>       0.32500000       0.27500000       0.27500000 </v>
   <v>       0.37500000       0.27500000       0.27500000 </v>
   <v>       0.42500000       0.27500000       0.27500000 </v>
   <v>       0.47500000       0.27500000       0.27500000 </v>
   <v>       0.32500000       0.32500000       0.27500000 </v>
   <v>       0.37500000       0.32500000       0.27500000 </v>
   <v>       0.42500000       0.32500000       0.27500000 </v>
   <v>       0.47500000       0.32500000       0.27500000 </v>
   <v>       0.37500000       0.37500000       0.27500000 </v>
   <v>       0.42500000       0.37500000       0.27500000 </v>
   <v>       0.47500000       0.37500000       0.27500000 </v>
   <v>       0.42500000       0.42500000       0.27500000 </v>
   <v>       0.47500000       0.42500000       0.27500000 </v>
   <v>       0.47500000       0.47500000       0.27500000 </v>
   <v>       0.32500000       0.32500000       0.32500000 </v>
   <v>       0.37500000       0.32500000       0.32500000 </v>
   <v>       0.42500000       0.32500000       0.32500000 </v>
   <v>       0.47500000       0.32500000       0.32500000 </v>
   <v>       0.37500000       0.37500000       0.32500000 </v>
   <v>       0.42500000       0.37500000       0.32500000 </v>
   <v>       0.47500000       0.37500000       0.32500000 </v>
   <v>       0.42500000       0.42500000       0.32500000 </v>
   <v>       0.47500000       0.42500000       0.32500000 </v>
   <v>       0.47500000       0.47500000       0.32500000 </v>
   <v>       0.37500000       0.37500000       0.37500000 </v>
   <v>       0.42500000       0.37500000       0.37500000 </v>
   <v>       0.47500000       0.37500000       0.37500000 </v>
   <v>       0.42500000       0.42500000       0.37500000 </v>
   <v>       0.47500000       0.42500000       0.37500000 </v>
   <v>       0.47500000       0.47500000       0.37500000 </v>
   <v>       0.42500000       0.42500000       0.42500000 </v>
   <v>       0.47500000       0.42500000       0.42500000 </v>
   <v>       0.47500000       0.47500000       0.42500000 </v>
   <v>       0.47500000       0.47500000       0.47500000 </v>
  </varray>
  <varray name="weights" >
   <v>       0.00100000 </v>
   <v>       0.00300000 </v>
   <v>       0.00300000 </v>
   <v>       0.00300000 </v>
   <v>       0.00300000 </v>
   <v>       0.00300000 </v>
   <v>       0.00300000 </v>
   <v>       0.00300000 </v>
   <v>       0.00300000 </v>
   <v>       0.00300000 </v>
   <v>       0.00300000 </v>
   <v>       0.00600000 </v>
   <v>       0.00600000 </v>
   <v>       0.00600000 </v>
   <v>       0.00600000 </v>
   <v>       0.00600000 </v>
   <v>       0.00600000 </v>
   <v>       0.00600000 </v>
   <v>       0.00600000 </v>
   <v>       0.00300000 </v>
   <v>       0.00600000 </v>
   <v>       0.00600000 </v>
   <v>       0.00600000 </v>
   <v>       0.00600000 </v>
   <v>       0.00600000 </v>
   <v>       0.00600000 </v>
   <v>       0.00600000 </v>
   <v>       0.00300000 </v>
   <v>       0.00600000 </v>
   <v>       0.00600000 </v>
   <v>       0.00600000 </v>
   <v>       0.00600000 </v>
   <v>       0.00600000 </v>
   <v>       0.00600000 </v>
   <v>       0.00300000 </v>
   <v>       0.00600000 </v>
   <v>       0.00600000 </v>
   <v>       0.00600000 </v>
   <v>       0.00600000 </v>
   <v>       0.00600000 </v>
   <v>       0.00300000 </v>
   <v>       0.00600000 </v>
   <v>       0.00600000 </v>
   <v>       0.00600000 </v>
   <v>       0.00600000 </v>
   <v>       0.00300000 </v>
   <v>       0.00600000 </v>
   <v>       0.00600000 </v>
   <v>       0.00600000 </v>
   <v>       0.00300000 </v>
   <v>       0.00600000 </v>
   <v>       0.00600000 </v>
   <v>       0.00300000 </v>
   <v>       0.00600000 </v>
   <v>       0.00300000 </v>
   <v>       0.00100000 </v>
   <v>       0.00300000 </v>
   <v>       0.00300000 </v>
   <v>       0.00300000 </v>
   <v>       0.00300000 </v>
   <v>       0.00300000 </v>
   <v>       0.00300000 </v>
   <v>       0.00300000 </v>
   <v>       0.00300000 </v>
   <v>       0.00300000 </v>
   <v>       0.00600000 </v>
   <v>       0.00600000 </v>
   <v>       0.00600000 </v>
   <v>       0.00600000 </v>
   <v>       0.00600000 </v>
   <v>       0.00600000 </v>
   <v>       0.00600000 </v>
   <v>       0.00300000 </v>
   <v>       0.00600000 </v>
   <v>       0.00600000 </v>
   <v>       0.00600000 </v>
   <v>       0.00600000 </v>
   <v>       0.00600000 </v>
   <v>       0.00600000 </v>
   <v>       0.00300000 </v>
   <v>       0.00600000 </v>
   <v>       0.00600000 </v>
   <v>       0.00600000 </v>
   <v>       0.00600000 </v>
   <v>       0.00600000 </v>
   <v>       0.00300000 </v>
   <v>       0.00600000 </v>
   <v>       0.00600000 </v>
   <v>       0.00600000 </v>
   <v>       0.00600000 </v>
   <v>       0.00300000 </v>
   <v>       0.00600000 </v>
   <v>       0.00600000 </v>
   <v>       0.00600000 </v>
   <v>       0.00300000 </v>
   <v>       0.00600000 </v>
   <v>       0.00600000 </v>
   <v>       0.00300000 </v>
   <v>       0.00600000 </v>
   <v>       0.00300000 </v>
   <v>       0.00100000 </v>
   <v>       0.00300000 </v>
   <v>       0.00300000 </v>
   <v>       0.00300000 </v>
   <v>       0.00300000 </v>
   <v>       0.00300000 </v>
   <v>       0.00300000 </v>
   <v>       0.00300000 </v>
   <v>       0.00300000 </v>
   <v>       0.00600000 </v>
   <v>       0.00600000 </v>
   <v>       0.00600000 </v>
   <v>       0.00600000 </v>
   <v>       0.00600000 </v>
   <v>       0.00600000 </v>
   <v>       0.00300000 </v>
   <v>       0.00600000 </v>
   <v>       0.00600000 </v>
   <v>       0.00600000 </v>
   <v>       0.00600000 </v>
   <v>       0.00600000 </v>
   <v>       0.00300000 </v>
   <v>       0.00600000 </v>
   <v>       0.00600000 </v>
   <v>       0.00600000 </v>
   <v>       0.00600000 </v>
   <v>       0.00300000 </v>
   <v>       0.00600000 </v>
   <v>       0.00600000 </v>
   <v>       0.00600000 </v>
   <v>       0.00300000 </v>
   <v>       0.00600000 </v>
   <v>       0.00600000 </v>
   <v>       0.00300000 </v>
   <v>       0.00600000 </v>
   <v>       0.00300000 </v>
   <v>       0.00100000 </v>
   <v>       0.00300000 </v>
   <v>       0.00300000 </v>
   <v>       0.00300000 </v>
   <v>       0.00300000 </v>
   <v>       0.00300000 </v>
   <v>       0.00300000 </v>
   <v>       0.00300000 </v>
   <v>       0.00600000 </v>
   <v>       0.00600000 </v>
   <v>       0.00600000 </v>
   <v>       0.00600000 </v>
   <v>       0.00600000 </v>
   <v>       0.00300000 </v>
   <v>       0.00600000 </v>
   <v>       0.00600000 </v>
   <v>       0.00600000 </v>
   <v>       0.00600000 </v>
   <v>       0.00300000 </v>
   <v>       0.00600000 </v>
   <v>       0.00600000 </v>
   <v>       0.00600000 </v>
   <v>       0.00300000 </v>
   <v>       0.00600000 </v>
   <v>       0.00600000 </v>
   <v>       0.00300000 </v>
   <v>       0.00600000 </v>
   <v>       0.00300000 </v>
   <v>       0.00100000 </v>
   <v>       0.00300000 </v>
   <v>       0.00300000 </v>
   <v>       0.00300000 </v>
   <v>       0.00300000 </v>
   <v>       0.00300000 </v>
   <v>       0.00300000 </v>
   <v>       0.00600000 </v>
   <v>       0.00600000 </v>
   <v>       0.00600000 </v>
   <v>       0.00600000 </v>
   <v>       0.00300000 </v>
   <v>       0.00600000 </v>
   <v>       0.00600000 </v>
   <v>       0.00600000 </v>
   <v>       0.00300000 </v>
   <v>       0.00600000 </v>
   <v>       0.00600000 </v>
   <v>       0.00300000 </v>
   <v>       0.00600000 </v>
   <v>       0.00300000 </v>
   <v>       0.00100000 </v>
   <v>       0.00300000 </v>
   <v>       0.00300000 </v>
   <v>       0.00300000 </v>
   <v>       0.00300000 </v>
   <v>       0.00300000 </v>
   <v>       0.00600000 </v>
   <v>       0.00600000 </v>
   <v>       0.00600000 </v>
   <v>       0.00300000 </v>
   <v>       0.00600000 </v>
   <v>       0.00600000 </v>
   <v>       0.00300000 </v>
   <v>       0.00600000 </v>
   <v>       0.00300000 </v>
   <v>       0.00100000 </v>
   <v>       0.00300000 </v>
   <v>       0.00300000 </v>
   <v>       0.00300000 </v>
   <v>       0.00300000 </v>
   <v>       0.00600000 </v>
   <v>       0.00600000 </v>
   <v>       0.00300000 </v>
   <v>       0.00600000 </v>
   <v>       0.00300000 </v>
   <v>       0.00100000 </v>
   <v>       0.00300000 </v>
   <v>       0.00300000 </v>
   <v>       0.00300000 </v>
   <v>       0.00600000 </v>
   <v>       0.00300000 </v>
   <v>       0.00100000 </v>
   <v>       0.00300000 </v>
   <v>       0.00300000 </v>
   <v>       0.00100000 </v>
  </varray>
 </kpoints>
 <parameters>
  <separator name="general" >
   <i type="string" name="SYSTEM">Pt bulk calculation</i>
   <i type="logical" name="LCOMPAT"> F  </i>
  </separator>
  <separator name="electronic" >
   <i type="string" name="PREC">normal</i>
   <i name="ENMAX">    450.00000000</i>
   <i name="ENAUG">    358.96600000</i>
   <i name="EDIFF">      0.00000100</i>
   <i type="int" name="IALGO">    38</i>
   <i type="int" name="IWAVPR">    11</i>
   <i type="int" name="NBANDS">    24</i>
   <i name="NELECT">     40.00000000</i>
   <i type="int" name="TURBO">     0</i>
   <i type="int" name="IRESTART">     0</i>
   <i type="int" name="NREBOOT">     0</i>
   <i type="int" name="NMIN">     0</i>
   <i name="EREF">      0.00000000</i>
   <separator name="electronic smearing" >
    <i type="int" name="ISMEAR">     2</i>
    <i name="SIGMA">      0.20000000</i>
    <i name="KSPACING">      0.50000000</i>
    <i type="logical" name="KGAMMA"> T  </i>
   </separator>
   <separator name="electronic projectors" >
    <i type="logical" name="LREAL"> F  </i>
    <v name="ROPT">      0.00000000</v>
    <i type="int" name="LMAXPAW">  -100</i>
    <i type="int" name="LMAXMIX">     2</i>
    <i type="logical" name="NLSPLINE"> F  </i>
   </separator>
   <separator name="electronic startup" >
    <i type="int" name="ISTART">     0</i>
    <i type="int" name="ICHARG">     2</i>
    <i type="int" name="INIWAV">     1</i>
   </separator>
   <separator name="electronic spin" >
    <i type="int" name="ISPIN">     1</i>
    <i type="logical" name="LNONCOLLINEAR"> F  </i>
    <v name="MAGMOM">      1.00000000      1.00000000      1.00000000      1.00000000</v>
    <i name="NUPDOWN">     -1.00000000</i>
    <i type="logical" name="LSORBIT"> F  </i>
    <v name="SAXIS">      0.00000000      0.00000000      1.00000000</v>
    <i type="logical" name="LSPIRAL"> F  </i>
    <v name="QSPIRAL">      0.00000000      0.00000000      0.00000000</v>
    <i type="logical" name="LZEROZ"> F  </i>
   </separator>
   <separator name="electronic exchange-correlation" >
    <i type="logical" name="LASPH"> F  </i>
    <i type="logical" name="LMETAGGA"> F  </i>
   </separator>
   <separator name="electronic convergence" >
    <i type="int" name="NELM">    60</i>
    <i type="int" name="NELMDL">    -5</i>
    <i type="int" name="NELMIN">    10</i>
    <i name="ENINI">    450.00000000</i>
    <separator name="electronic convergence detail" >
     <i type="logical" name="LDIAG"> T  </i>
     <i type="logical" name="LSUBROT"> F  </i>
     <i name="WEIMIN">      0.00100000</i>
     <i name="EBREAK">      0.00000001</i>
     <i name="DEPER">      0.30000000</i>
     <i type="int" name="NRMM">     4</i>
     <i name="TIME">      0.40000000</i>
    </separator>
   </separator>
   <separator name="electronic mixer" >
    <i name="AMIX">      0.40000000</i>
    <i name="BMIX">      1.00000000</i>
    <i name="AMIN">      0.10000000</i>
    <i name="AMIX_MAG">      1.60000000</i>
    <i name="BMIX_MAG">      1.00000000</i>
    <separator name="electronic mixer details" >
     <i type="int" name="IMIX">     4</i>
     <i type="logical" name="MIXFIRST"> F  </i>
     <i type="int" name="MAXMIX">   -45</i>
     <i name="WC">    100.00000000</i>
     <i type="int" name="INIMIX">     1</i>
     <i type="int" name="MIXPRE">     1</i>
     <i type="int" name="MREMOVE">     5</i>
    </separator>
   </separator>
   <separator name="electronic dipolcorrection" >
    <i type="logical" name="LDIPOL"> F  </i>
    <i type="logical" name="LMONO"> F  </i>
    <i type="int" name="IDIPOL">     0</i>
    <i name="EPSILON">      1.00000000</i>
    <v name="DIPOL">   -100.00000000   -100.00000000   -100.00000000</v>
    <i name="EFIELD">      0.00000000</i>
   </separator>
  </separator>
  <separator name="grids" >
   <i type="int" name="NGX">    20</i>
   <i type="int" name="NGY">    20</i>
   <i type="int" name="NGZ">    20</i>
   <i type="int" name="NGXF">    40</i>
   <i type="int" name="NGYF">    40</i>
   <i type="int" name="NGZF">    40</i>
   <i type="logical" name="ADDGRID"> F  </i>
  </separator>
  <separator name="ionic" >
   <i type="int" name="NSW">    10</i>
   <i type="int" name="IBRION">     2</i>
   <i type="int" name="MDALGO">     0</i>
   <i type="int" name="ISIF">     2</i>
   <i name="PSTRESS">      0.00000000</i>
   <i name="EDIFFG">     -0.02000000</i>
   <i type="int" name="NFREE">     1</i>
   <i name="POTIM">      0.20000000</i>
   <i name="SMASS">     -3.00000000</i>
   <i name="SCALEE">      1.00000000</i>
  </separator>
  <separator name="ionic md" >
   <i name="TEBEG">      0.00010000</i>
   <i name="TEEND">      0.00010000</i>
   <i type="int" name="NBLOCK">     1</i>
   <i type="int" name="KBLOCK">    10</i>
   <i type="int" name="NPACO">   256</i>
   <i name="APACO">     16.00000000</i>
  </separator>
  <separator name="symmetry" >
   <i type="int" name="ISYM">     2</i>
   <i name="SYMPREC">      0.00001000</i>
  </separator>
  <separator name="dos" >
   <i type="int" name="LORBIT">     0</i>
   <v name="RWIGS">     -1.00000000</v>
   <i type="int" name="NEDOS">   301</i>
   <i name="EMIN">     10.00000000</i>
   <i name="EMAX">    -10.00000000</i>
   <i name="EFERMI">      0.00000000</i>
  </separator>
  <separator name="writing" >
   <i type="int" name="NWRITE">     2</i>
   <i type="logical" name="LWAVE"> T  </i>
   <i type="logical" name="LDOWNSAMPLE"> F  </i>
   <i type="logical" name="LCHARG"> T  </i>
   <i type="logical" name="LPARD"> F  </i>
   <i type="logical" name="LVTOT"> F  </i>
   <i type="logical" name="LVHAR"> F  </i>
   <i type="logical" name="LELF"> F  </i>
   <i type="logical" name="LOPTICS"> F  </i>
   <v name="STM">      0.00000000      0.00000000      0.00000000      0.00000000      0.00000000      0.00000000      0.00000000</v>
  </separator>
  <separator name="performance" >
   <i type="int" name="NPAR">     2</i>
   <i type="int" name="NSIM">     4</i>
   <i type="int" name="NBLK">    -1</i>
   <i type="logical" name="LPLANE"> T  </i>
   <i type="logical" name="LSCALAPACK"> F  </i>
   <i type="logical" name="LSCAAWARE"> F  </i>
   <i type="logical" name="LSCALU"> F  </i>
   <i type="logical" name="LASYNC"> F  </i>
   <i type="logical" name="LORBITALREAL"> F  </i>
  </separator>
  <separator name="miscellaneous" >
   <i type="int" name="IDIOT">     3</i>
   <i type="int" name="ISPECIAL">     0</i>
   <i type="logical" name="LMUSIC"> F  </i>
   <v name="POMASS">    195.08000000</v>
   <v name="DARWINR">      0.00000000</v>
   <v name="DARWINV">      1.00000000</v>
   <i type="logical" name="LCORR"> T  </i>
  </separator>
  <i type="logical" name="GGA_COMPAT"> T  </i>
  <i type="logical" name="LBERRY"> F  </i>
  <i type="int" name="ICORELEVEL">     0</i>
  <i type="logical" name="LDAU"> F  </i>
  <i type="int" name="I_CONSTRAINED_M">     0</i>
  <separator name="electronic exchange-correlation" >
   <i type="string" name="GGA">91</i>
   <i type="int" name="VOSKOWN">     0</i>
   <i type="logical" name="LHFCALC"> F  </i>
   <i type="string" name="PRECFOCK"></i>
   <i type="logical" name="LSYMGRAD"> F  </i>
   <i type="logical" name="LHFONE"> F  </i>
   <i type="logical" name="LRHFCALC"> F  </i>
   <i type="logical" name="LTHOMAS"> F  </i>
   <i type="logical" name="LMODELHF"> F  </i>
   <i name="ENCUT4O">     -1.00000000</i>
   <i type="int" name="EXXOEP">     0</i>
   <i type="int" name="FOURORBIT">     0</i>
   <i name="AEXX">      0.00000000</i>
   <i name="HFALPHA">      0.00000000</i>
   <i name="MCALPHA">      0.00000000</i>
   <i name="ALDAX">      1.00000000</i>
   <i name="AGGAX">      1.00000000</i>
   <i name="ALDAC">      1.00000000</i>
   <i name="AGGAC">      1.00000000</i>
   <i type="int" name="NKREDX">     1</i>
   <i type="int" name="NKREDY">     1</i>
   <i type="int" name="NKREDZ">     1</i>
   <i type="logical" name="SHIFTRED"> F  </i>
   <i type="logical" name="ODDONLY"> F  </i>
   <i type="logical" name="EVENONLY"> F  </i>
   <i type="int" name="LMAXFOCK">     0</i>
   <i type="int" name="NMAXFOCKAE">     0</i>
   <i type="logical" name="LFOCKAEDFT"> F  </i>
   <i name="HFSCREEN">      0.00000000</i>
   <i name="HFSCREENC">      0.00000000</i>
   <i type="int" name="NBANDSGWLOW">     0</i>
  </separator>
  <separator name="vdW DFT" >
   <i type="logical" name="LUSE_VDW"> F  </i>
   <i name="Zab_VDW">     -0.84910000</i>
   <i name="PARAM1">      0.12340000</i>
   <i name="PARAM2">      1.00000000</i>
   <i name="PARAM3">      0.00000000</i>
  </separator>
  <separator name="model GW" >
   <i type="int" name="MODEL_GW">     0</i>
   <i name="MODEL_EPS0">      8.96647065</i>
   <i name="MODEL_ALPHA">      1.00000000</i>
  </separator>
  <separator name="linear response parameters" >
   <i type="logical" name="LEPSILON"> F  </i>
   <i type="logical" name="LRPA"> F  </i>
   <i type="logical" name="LNABLA"> F  </i>
   <i type="logical" name="LVEL"> F  </i>
   <i type="int" name="KINTER">     0</i>
   <i name="CSHIFT">      0.10000000</i>
   <i name="OMEGAMAX">     -1.00000000</i>
   <i name="DEG_THRESHOLD">      0.00200000</i>
   <i name="RTIME">     -0.10000000</i>
   <i name="WPLASMAI">      0.00000000</i>
   <v name="DFIELD">      0.00000000      0.00000000      0.00000000</v>
   <v name="WPLASMA">      0.00000000      0.00000000      0.00000000      0.00000000      0.00000000      0.00000000      0.00000000      0.00000000      0.00000000</v>
  </separator>
  <separator name="orbital magnetization" >
   <i type="logical" name="NUCIND"> F  </i>
   <v name="MAGPOS">      0.00000000      0.00000000      0.00000000</v>
   <i type="logical" name="LNICSALL"> T  </i>
   <i type="logical" name="ORBITALMAG"> F  </i>
   <i type="logical" name="LMAGBLOCH"> F  </i>
   <i type="logical" name="LCHIMAG"> F  </i>
   <i type="logical" name="LGAUGE"> T  </i>
   <i type="int" name="MAGATOM">     0</i>
   <v name="MAGDIPOL">      0.00000000      0.00000000      0.00000000</v>
   <v name="AVECCONST">      0.00000000      0.00000000      0.00000000</v>
  </separator>
  <separator name="response functions" >
   <i type="logical" name="LADDER"> F  </i>
   <i type="logical" name="LRPAFORCE"> F  </i>
   <i type="logical" name="LFXC"> F  </i>
   <i type="logical" name="LHARTREE"> T  </i>
   <i type="int" name="IBSE">     0</i>
   <v type="int" name="KPOINT">    -1     0     0     0</v>
   <i type="logical" name="LTCTE"> F  </i>
   <i type="logical" name="LTETE"> F  </i>
   <i type="logical" name="LTRIPLET"> F  </i>
   <i type="logical" name="LFXCEPS"> F  </i>
   <i type="logical" name="LFXHEG"> F  </i>
   <i type="int" name="NATURALO">     2</i>
   <i type="logical" name="L2ORDER"> F  </i>
   <i type="logical" name="LMP2LT"> F  </i>
   <i type="logical" name="LUSEW"> F  </i>
   <i name="ENCUTGW">     -2.00000000</i>
   <i name="ENCUTGWSOFT">     -2.00000000</i>
   <i name="ENCUTLF">     -1.00000000</i>
   <i type="int" name="LMAXMP2">    -1</i>
   <i name="SCISSOR">      0.00000000</i>
   <i type="int" name="NOMEGA">     0</i>
   <i type="int" name="NOMEGAR">     0</i>
   <i type="int" name="NBANDSGW">    -1</i>
   <i type="int" name="NBANDSO">    -1</i>
   <i type="int" name="NBANDSV">    -1</i>
   <i type="int" name="NELM">     1</i>
   <i type="int" name="NELMHF">     1</i>
   <i type="int" name="DIM">     3</i>
   <i type="int" name="ANTIRES">     0</i>
   <i name="OMEGAMAX">    -30.00000000</i>
   <i name="OMEGAMIN">    -30.00000000</i>
   <i name="OMEGATL">   -200.00000000</i>
   <i type="int" name="OMEGAGRID">   140</i>
   <i name="CSHIFT">     -0.10000000</i>
   <i type="logical" name="SELFENERGY"> F  </i>
   <i type="logical" name="LSPECTRAL"> F  </i>
   <i type="logical" name="LSPECTRALGW"> F  </i>
   <i type="logical" name="LSINGLES"> F  </i>
   <i type="logical" name="LFERMIGW"> F  </i>
   <i type="logical" name="ODDONLYGW"> F  </i>
   <i type="logical" name="EVENONLYGW"> F  </i>
   <i type="int" name="NKREDLFX">     1</i>
   <i type="int" name="NKREDLFY">     1</i>
   <i type="int" name="NKREDLFZ">     1</i>
   <i type="int" name="MAXMEM">  2800</i>
   <i type="int" name="TELESCOPE">     0</i>
   <i type="int" name="TAUPAR">     1</i>
   <i type="int" name="OMEGAPAR">    -1</i>
   <i name="LAMBDA">      1.00000000</i>
  </separator>
  <separator name="External order field" >
   <i name="OFIELD_KAPPA">      0.00000000</i>
   <v name="OFIELD_K">      0.00000000      0.00000000      0.00000000</v>
   <i name="OFIELD_Q6_NEAR">      0.00000000</i>
   <i name="OFIELD_Q6_FAR">      0.00000000</i>
   <i name="OFIELD_A">      0.00000000</i>
  </separator>
 </parameters>
 <atominfo>
  <atoms>       4 </atoms>
  <types>       1 </types>
  <array name="atoms" >
   <dimension dim="1">ion</dimension>
   <field type="string">element</field>
   <field type="int">atomtype</field>
   <set>
    <rc><c>Pt</c><c>   1</c></rc>
    <rc><c>Pt</c><c>   1</c></rc>
    <rc><c>Pt</c><c>   1</c></rc>
    <rc><c>Pt</c><c>   1</c></rc>
   </set>
  </array>
  <array name="atomtypes" >
   <dimension dim="1">type</dimension>
   <field type="int">atomspertype</field>
   <field type="string">element</field>
   <field>mass</field>
   <field>valence</field>
   <field type="string">pseudopotential</field>
   <set>
    <rc><c>   4</c><c>Pt</c><c>    195.08000000</c><c>     10.00000000</c><c> PAW_PBE Pt 05Jan2001                   </c></rc>
   </set>
  </array>
 </atominfo>
 <structure name="initialpos" >
  <crystal>
   <varray name="basis" >
    <v>       3.91000000       0.00000000       0.00000000 </v>
    <v>       0.00000000       3.91000000       0.00000000 </v>
    <v>       0.00000000       0.00000000       3.91000000 </v>
   </varray>
   <i name="volume">     59.77647100 </i>
   <varray name="rec_basis" >
    <v>       0.25575448       0.00000000       0.00000000 </v>
    <v>       0.00000000       0.25575448       0.00000000 </v>
    <v>       0.00000000       0.00000000       0.25575448 </v>
   </varray>
  </crystal>
  <varray name="positions" >
   <v>       0.00000000       0.00000000       0.00000000 </v>
   <v>       0.00000000       0.50000000       0.50000000 </v>
   <v>       0.50000000       0.00000000       0.50000000 </v>
   <v>       0.50000000       0.50000000       0.00000000 </v>
  </varray>
 </structure>
 <calculation>
  <scstep>
   <time name="dav">    1.83    1.83</time>
   <time name="total">    1.86    1.96</time>
   <energy>
    <i name="alphaZ">    389.43825908 </i>
    <i name="ewald">  -3377.03523054 </i>
    <i name="hartreedc">   -282.91984148 </i>
    <i name="XCdc">     14.38333910 </i>
    <i name="pawpsdc">   2293.79710215 </i>
    <i name="pawaedc">  -2181.03440391 </i>
    <i name="eentropy">     -0.00120075 </i>
    <i name="bandstr">    676.53138275 </i>
    <i name="atom">   2915.53815049 </i>
    <i name="e_fr_energy">    448.69755688 </i>
    <i name="e_wo_entrp">    448.69875764 </i>
    <i name="e_0_energy">    448.69785707 </i>
   </energy>
  </scstep>
  <scstep>
   <time name="dav">    1.87    1.87</time>
   <time name="total">    1.89    1.89</time>
   <energy>
    <i name="e_fr_energy">      3.50691404 </i>
    <i name="e_wo_entrp">      3.50728656 </i>
    <i name="e_0_energy">      3.50700717 </i>
   </energy>
  </scstep>
  <scstep>
   <time name="dav">    2.49    2.49</time>
   <time name="total">    2.51    2.51</time>
   <energy>
    <i name="e_fr_energy">    -25.02599503 </i>
    <i name="e_wo_entrp">    -25.02216018 </i>
    <i name="e_0_energy">    -25.02503632 </i>
   </energy>
  </scstep>
  <scstep>
   <time name="dav">    1.94    1.94</time>
   <time name="total">    1.96    1.96</time>
   <energy>
    <i name="e_fr_energy">    -25.84158323 </i>
    <i name="e_wo_entrp">    -25.83708698 </i>
    <i name="e_0_energy">    -25.84045917 </i>
   </energy>
  </scstep>
  <scstep>
   <time name="dav">    2.17    2.17</time>
   <time name="total">    2.29    2.29</time>
   <energy>
    <i name="e_fr_energy">    -25.86368020 </i>
    <i name="e_wo_entrp">    -25.85912944 </i>
    <i name="e_0_energy">    -25.86254251 </i>
   </energy>
  </scstep>
  <scstep>
   <time name="dav">    2.11    2.11</time>
   <time name="total">    2.23    2.23</time>
   <energy>
    <i name="e_fr_energy">    -24.40476438 </i>
    <i name="e_wo_entrp">    -24.40017722 </i>
    <i name="e_0_energy">    -24.40361759 </i>
   </energy>
  </scstep>
  <scstep>
   <time name="dav">    2.51    2.51</time>
   <time name="total">    2.63    2.63</time>
   <energy>
    <i name="e_fr_energy">    -24.25147688 </i>
    <i name="e_wo_entrp">    -24.24662813 </i>
    <i name="e_0_energy">    -24.25026469 </i>
   </energy>
  </scstep>
  <scstep>
   <time name="dav">    1.86    1.86</time>
   <time name="total">    1.98    1.98</time>
   <energy>
    <i name="e_fr_energy">    -24.23478981 </i>
    <i name="e_wo_entrp">    -24.22994176 </i>
    <i name="e_0_energy">    -24.23357780 </i>
   </energy>
  </scstep>
  <scstep>
   <time name="dav">    2.27    2.27</time>
   <time name="total">    2.39    2.39</time>
   <energy>
    <i name="e_fr_energy">    -24.23446116 </i>
    <i name="e_wo_entrp">    -24.22960306 </i>
    <i name="e_0_energy">    -24.23324664 </i>
   </energy>
  </scstep>
  <scstep>
   <time name="dav">    1.95    1.95</time>
   <time name="total">    2.07    2.07</time>
   <energy>
    <i name="e_fr_energy">    -24.23448164 </i>
    <i name="e_wo_entrp">    -24.22962358 </i>
    <i name="e_0_energy">    -24.23326713 </i>
   </energy>
  </scstep>
  <scstep>
   <time name="dav">    1.60    1.60</time>
   <time name="total">    1.72    1.72</time>
   <energy>
    <i name="e_fr_energy">    -24.23448439 </i>
    <i name="e_wo_entrp">    -24.22962627 </i>
    <i name="e_0_energy">    -24.23326986 </i>
   </energy>
  </scstep>
  <scstep>
   <time name="dav">    1.23    1.23</time>
   <time name="total">    1.25    1.25</time>
   <energy>
    <i name="alphaZ">    389.43825908 </i>
    <i name="ewald">  -3377.03523054 </i>
    <i name="hartreedc">   -242.92712613 </i>
    <i name="XCdc">     12.84962262 </i>
    <i name="pawpsdc">   2422.04208282 </i>
    <i name="pawaedc">  -2320.20698945 </i>
    <i name="eentropy">     -0.00485804 </i>
    <i name="bandstr">    176.07160488 </i>
    <i name="atom">   2915.53815049 </i>
    <i name="e_fr_energy">    -24.23448426 </i>
    <i name="e_wo_entrp">    -24.22962622 </i>
    <i name="e_0_energy">    -24.23326975 </i>
   </energy>
  </scstep>
  <structure>
   <crystal>
    <varray name="basis" >
     <v>       3.91000000       0.00000000       0.00000000 </v>
     <v>       0.00000000       3.91000000       0.00000000 </v>
     <v>       0.00000000       0.00000000       3.91000000 </v>
    </varray>
    <i name="volume">     59.77647100 </i>
    <varray name="rec_basis" >
     <v>       0.25575448       0.00000000       0.00000000 </v>
     <v>       0.00000000       0.25575448       0.00000000 </v>
     <v>       0.00000000       0.00000000       0.25575448 </v>
    </varray>
   </crystal>
   <varray name="positions" >
    <v>       0.00000000       0.00000000       0.00000000 </v>
    <v>       0.00000000       0.50000000       0.50000000 </v>
    <v>       0.50000000       0.00000000       0.50000000 </v>
    <v>       0.50000000       0.50000000       0.00000000 </v>
   </varray>
  </structure>
  <varray name="forces" >
   <v>       0.00000000       0.00000000       0.00000000 </v>
   <v>       0.00000000      -0.00000000      -0.00000000 </v>
   <v>       0.00000000      -0.00000000      -0.00000000 </v>
   <v>       0.00000000      -0.00000000       0.00000000 </v>
  </varray>
  <varray name="stress" >
   <v>     172.38133664       0.00000000      -0.00000000 </v>
   <v>       0.00000000     172.38133664       0.00000000 </v>
   <v>       0.00000000       0.00000000     172.38133664 </v>
  </varray>
  <energy>
   <i name="e_fr_energy">    -24.23448426 </i>
   <i name="e_wo_entrp">    -24.23326975 </i>
   <i name="e_0_energy">     -0.00485804 </i>
  </energy>
  <time name="totalsc">   26.65   28.97</time>
  <eigenvalues>
   <array>
    <dimension dim="1">band</dimension>
    <dimension dim="2">kpoint</dimension>
    <dimension dim="3">spin</dimension>
    <field>eigene</field>
    <field>occ</field>
    <set>
     <set comment="spin 1">
      <set comment="kpoint 1">
       <r>   -2.1793    1.0000 </r>
       <r>    0.9108    1.0000 </r>
       <r>    0.9108    1.0000 </r>
       <r>    0.9108    1.0000 </r>
       <r>    1.3607    1.0000 </r>
       <r>    1.3607    1.0000 </r>
       <r>    1.3607    1.0000 </r>
       <r>    4.2092    1.0000 </r>
       <r>    4.2315    1.0000 </r>
       <r>    4.2315    1.0000 </r>
       <r>    6.4193    1.0000 </r>
       <r>    6.4193    1.0000 </r>
       <r>    8.0776    0.5555 </r>
       <r>    8.0776    0.5555 </r>
       <r>    8.0776    0.5555 </r>
       <r>    8.4248   -0.0007 </r>
       <r>    8.4248   -0.0007 </r>
       <r>    8.4248   -0.0007 </r>
       <r>    8.5764    0.0025 </r>
       <r>    8.5764    0.0025 </r>
       <r>    8.5764    0.0025 </r>
       <r>   10.0532    0.0000 </r>
       <r>   10.0532    0.0000 </r>
       <r>   10.0532    0.0000 </r>
      </set>
      <set comment="kpoint 2">
       <r>   -2.1112    1.0000 </r>
       <r>    0.9382    1.0000 </r>
       <r>    0.9611    1.0000 </r>
       <r>    0.9611    1.0000 </r>
       <r>    1.3889    1.0000 </r>
       <r>    1.4043    1.0000 </r>
       <r>    1.4043    1.0000 </r>
       <r>    4.1672    1.0000 </r>
       <r>    4.2639    1.0000 </r>
       <r>    4.2667    1.0000 </r>
       <r>    6.3688    1.0000 </r>
       <r>    6.4381    1.0000 </r>
       <r>    7.9569    1.0080 </r>
       <r>    7.9569    1.0080 </r>
       <r>    8.0213    0.8248 </r>
       <r>    8.0213    0.8248 </r>
       <r>    8.0487    0.7025 </r>
       <r>    8.3114   -0.0449 </r>
       <r>    8.4914    0.0049 </r>
       <r>    8.5715    0.0026 </r>
       <r>    8.5715    0.0026 </r>
       <r>    9.7151    0.0000 </r>
       <r>   10.5412    0.0000 </r>
       <r>   10.5412    0.0000 </r>
      </set>
      <set comment="kpoint 3">
       <r>   -1.9760    1.0000 </r>
       <r>    0.9899    1.0000 </r>
       <r>    1.0598    1.0000 </r>
       <r>    1.0598    1.0000 </r>
       <r>    1.4450    1.0000 </r>
       <r>    1.4913    1.0000 </r>
       <r>    1.4913    1.0000 </r>
       <r>    4.0794    1.0000 </r>
       <r>    4.3344    1.0000 </r>
       <r>    4.3371    1.0000 </r>
       <r>    6.2705    1.0000 </r>
       <r>    6.4754    1.0000 </r>
       <r>    7.3919    1.0000 </r>
       <r>    7.3919    1.0000 </r>
       <r>    7.8585    1.0423 </r>
       <r>    7.8585    1.0423 </r>
       <r>    7.9870    0.9420 </r>
       <r>    8.0800    0.5429 </r>
       <r>    8.3347   -0.0347 </r>
       <r>    8.5709    0.0027 </r>
       <r>    8.5709    0.0027 </r>
       <r>    9.1651    0.0000 </r>
       <r>   11.1894    0.0000 </r>
       <r>   11.1894    0.0000 </r>
      </set>
      <set comment="kpoint 4">
       <r>   -1.7758    1.0000 </r>
       <r>    1.0591    1.0000 </r>
       <r>    1.2032    1.0000 </r>
       <r>    1.2032    1.0000 </r>
       <r>    1.5282    1.0000 </r>
       <r>    1.6215    1.0000 </r>
       <r>    1.6215    1.0000 </r>
       <r>    3.9525    1.0000 </r>
       <r>    4.4402    1.0000 </r>
       <r>    4.4422    1.0000 </r>
       <r>    6.1294    1.0000 </r>
       <r>    6.5306    1.0000 </r>
       <r>    6.7938    1.0000 </r>
       <r>    6.7938    1.0000 </r>
       <r>    7.6439    0.9959 </r>
       <r>    7.6439    0.9959 </r>
       <r>    7.7099    0.9957 </r>
       <r>    7.8757    1.0485 </r>
       <r>    8.1392    0.2432 </r>
       <r>    8.5650    0.0029 </r>
       <r>    8.5709    0.0027 </r>
       <r>    8.5709    0.0027 </r>
       <r>   11.8876    0.0000 </r>
       <r>   11.8876    0.0000 </r>
      </set>
      <set comment="kpoint 5">
       <r>   -1.5142    1.0000 </r>
       <r>    1.1343    1.0000 </r>
       <r>    1.3853    1.0000 </r>
       <r>    1.3853    1.0000 </r>
       <r>    1.6377    1.0000 </r>
       <r>    1.7942    1.0000 </r>
       <r>    1.7942    1.0000 </r>
       <r>    3.7923    1.0000 </r>
       <r>    4.5798    1.0000 </r>
       <r>    4.5814    1.0000 </r>
       <r>    5.9537    1.0000 </r>
       <r>    6.2052    1.0000 </r>
       <r>    6.2052    1.0000 </r>
       <r>    6.6026    1.0000 </r>
       <r>    7.1819    1.0000 </r>
       <r>    7.3754    1.0000 </r>
       <r>    7.3754    1.0000 </r>
       <r>    7.6742    0.9951 </r>
       <r>    7.9651    0.9935 </r>
       <r>    8.0421    0.7339 </r>
       <r>    8.5712    0.0026 </r>
       <r>    8.5712    0.0026 </r>
       <r>   12.6036    0.0000 </r>
       <r>   12.6036    0.0000 </r>
      </set>
      <set comment="kpoint 6">
       <r>   -1.1967    1.0000 </r>
       <r>    1.1972    1.0000 </r>
       <r>    1.5965    1.0000 </r>
       <r>    1.5965    1.0000 </r>
       <r>    1.7718    1.0000 </r>
       <r>    2.0084    1.0000 </r>
       <r>    2.0084    1.0000 </r>
       <r>    3.6055    1.0000 </r>
       <r>    4.7510    1.0000 </r>
       <r>    4.7538    1.0000 </r>
       <r>    5.6373    1.0000 </r>
       <r>    5.6373    1.0000 </r>
       <r>    5.7556    1.0000 </r>
       <r>    6.5670    1.0000 </r>
       <r>    6.6902    1.0000 </r>
       <r>    7.0702    1.0000 </r>
       <r>    7.0702    1.0000 </r>
       <r>    7.3871    1.0000 </r>
       <r>    7.6059    0.9973 </r>
       <r>    7.8273    1.0278 </r>
       <r>    8.5716    0.0026 </r>
       <r>    8.5716    0.0026 </r>
       <r>   13.3209    0.0000 </r>
       <r>   13.3209    0.0000 </r>
      </set>
      <set comment="kpoint 7">
       <r>   -0.8316    1.0000 </r>
       <r>    1.2209    1.0000 </r>
       <r>    1.8226    1.0000 </r>
       <r>    1.8226    1.0000 </r>
       <r>    1.9287    1.0000 </r>
       <r>    2.2625    1.0000 </r>
       <r>    2.2625    1.0000 </r>
       <r>    3.3991    1.0000 </r>
       <r>    4.9472    1.0000 </r>
       <r>    4.9583    1.0000 </r>
       <r>    5.0958    1.0000 </r>
       <r>    5.0958    1.0000 </r>
       <r>    5.5546    1.0000 </r>
       <r>    5.9785    1.0000 </r>
       <r>    6.7526    1.0000 </r>
       <r>    6.7526    1.0000 </r>
       <r>    6.7917    1.0000 </r>
       <r>    7.0609    1.0000 </r>
       <r>    7.2094    1.0000 </r>
       <r>    7.6976    0.9952 </r>
       <r>    8.5721    0.0026 </r>
       <r>    8.5721    0.0026 </r>
       <r>   14.0222    0.0000 </r>
       <r>   14.0222    0.0000 </r>
      </set>
      <set comment="kpoint 8">
       <r>   -0.4310    1.0000 </r>
       <r>    1.1712    1.0000 </r>
       <r>    2.0417    1.0000 </r>
       <r>    2.0417    1.0000 </r>
       <r>    2.1062    1.0000 </r>
       <r>    2.5553    1.0000 </r>
       <r>    2.5553    1.0000 </r>
       <r>    3.1801    1.0000 </r>
       <r>    4.5845    1.0000 </r>
       <r>    4.5845    1.0000 </r>
       <r>    5.1248    1.0000 </r>
       <r>    5.1932    1.0000 </r>
       <r>    5.4117    1.0000 </r>
       <r>    5.4970    1.0000 </r>
       <r>    6.4552    1.0000 </r>
       <r>    6.4552    1.0000 </r>
       <r>    6.7217    1.0000 </r>
       <r>    6.8319    1.0000 </r>
       <r>    6.9052    1.0000 </r>
       <r>    7.5654    0.9986 </r>
       <r>    8.5725    0.0026 </r>
       <r>    8.5725    0.0026 </r>
       <r>   14.6683    0.0000 </r>
       <r>   14.6683    0.0000 </r>
      </set>
      <set comment="kpoint 9">
       <r>   -0.0138    1.0000 </r>
       <r>    1.0167    1.0000 </r>
       <r>    2.2222    1.0000 </r>
       <r>    2.2222    1.0000 </r>
       <r>    2.3013    1.0000 </r>
       <r>    2.8861    1.0000 </r>
       <r>    2.8861    1.0000 </r>
       <r>    2.9551    1.0000 </r>
       <r>    4.1060    1.0000 </r>
       <r>    4.1060    1.0000 </r>
       <r>    5.0965    1.0000 </r>
       <r>    5.1723    1.0000 </r>
       <r>    5.4565    1.0000 </r>
       <r>    5.5371    1.0000 </r>
       <r>    6.2179    1.0000 </r>
       <r>    6.2179    1.0000 </r>
       <r>    6.3837    1.0000 </r>
       <r>    6.4707    1.0000 </r>
       <r>    7.0284    1.0000 </r>
       <r>    7.4301    0.9999 </r>
       <r>    8.5728    0.0026 </r>
       <r>    8.5728    0.0026 </r>
       <r>   15.1026    0.0000 </r>
       <r>   15.1026    0.0000 </r>
      </set>
      <set comment="kpoint 10">
       <r>    0.3922    1.0000 </r>
       <r>    0.7491    1.0000 </r>
       <r>    2.3266    1.0000 </r>
       <r>    2.3266    1.0000 </r>
       <r>    2.5106    1.0000 </r>
       <r>    2.7301    1.0000 </r>
       <r>    3.2546    1.0000 </r>
       <r>    3.2546    1.0000 </r>
       <r>    3.6629    1.0000 </r>
       <r>    3.6629    1.0000 </r>
       <r>    5.0116    1.0000 </r>
       <r>    5.0188    1.0000 </r>
       <r>    5.7453    1.0000 </r>
       <r>    5.8127    1.0000 </r>
       <r>    6.0560    1.0000 </r>
       <r>    6.0839    1.0000 </r>
       <r>    6.0839    1.0000 </r>
       <r>    6.1290    1.0000 </r>
       <r>    7.1588    1.0000 </r>
       <r>    7.2937    1.0000 </r>
       <r>    8.5730    0.0026 </r>
       <r>    8.5730    0.0026 </r>
       <r>   15.2047    0.0000 </r>
       <r>   15.2047    0.0000 </r>
      </set>
      <set comment="kpoint 11">
       <r>   -2.0437    1.0000 </r>
       <r>    0.9887    1.0000 </r>
       <r>    0.9887    1.0000 </r>
       <r>    1.0071    1.0000 </r>
       <r>    1.4321    1.0000 </r>
       <r>    1.4321    1.0000 </r>
       <r>    1.4506    1.0000 </r>
       <r>    4.1429    1.0000 </r>
       <r>    4.2805    1.0000 </r>
       <r>    4.2989    1.0000 </r>
       <r>    6.3542    1.0000 </r>
       <r>    6.4243    1.0000 </r>
       <r>    7.6919    0.9951 </r>
       <r>    7.8024    1.0165 </r>
       <r>    7.8024    1.0165 </r>
       <r>    7.9259    1.0427 </r>
       <r>    8.0128    0.8577 </r>
       <r>    8.0128    0.8577 </r>
       <r>    8.4898    0.0049 </r>
       <r>    8.4898    0.0049 </r>
       <r>    8.5246    0.0043 </r>
       <r>   10.2177    0.0000 </r>
       <r>   10.2177    0.0000 </r>
       <r>   10.9119    0.0000 </r>
      </set>
      <set comment="kpoint 12">
       <r>   -1.9097    1.0000 </r>
       <r>    1.0409    1.0000 </r>
       <r>    1.0880    1.0000 </r>
       <r>    1.0976    1.0000 </r>
       <r>    1.4875    1.0000 </r>
       <r>    1.5185    1.0000 </r>
       <r>    1.5427    1.0000 </r>
       <r>    4.0674    1.0000 </r>
       <r>    4.3407    1.0000 </r>
       <r>    4.3645    1.0000 </r>
       <r>    6.2706    1.0000 </r>
       <r>    6.4532    1.0000 </r>
       <r>    7.2231    1.0000 </r>
       <r>    7.2311    1.0000 </r>
       <r>    7.5411    0.9991 </r>
       <r>    7.7860    1.0102 </r>
       <r>    7.8616    1.0436 </r>
       <r>    7.9448    1.0253 </r>
       <r>    8.3409   -0.0317 </r>
       <r>    8.4868    0.0049 </r>
       <r>    8.4970    0.0049 </r>
       <r>    9.6957    0.0000 </r>
       <r>   10.8560    0.0000 </r>
       <r>   11.4767    0.0000 </r>
      </set>
      <set comment="kpoint 13">
       <r>   -1.7113    1.0000 </r>
       <r>    1.1109    1.0000 </r>
       <r>    1.2299    1.0000 </r>
       <r>    1.2324    1.0000 </r>
       <r>    1.5697    1.0000 </r>
       <r>    1.6475    1.0000 </r>
       <r>    1.6794    1.0000 </r>
       <r>    3.9472    1.0000 </r>
       <r>    4.4424    1.0000 </r>
       <r>    4.4618    1.0000 </r>
       <r>    6.1371    1.0000 </r>
       <r>    6.5111    1.0000 </r>
       <r>    6.6387    1.0000 </r>
       <r>    6.6861    1.0000 </r>
       <r>    7.1709    1.0000 </r>
       <r>    7.5842    0.9980 </r>
       <r>    7.6568    0.9955 </r>
       <r>    7.8108    1.0202 </r>
       <r>    8.1534    0.1817 </r>
       <r>    8.4841    0.0049 </r>
       <r>    8.4843    0.0049 </r>
       <r>    9.1140    0.0000 </r>
       <r>   11.5268    0.0000 </r>
       <r>   12.1249    0.0000 </r>
      </set>
      <set comment="kpoint 14">
       <r>   -1.4522    1.0000 </r>
       <r>    1.1871    1.0000 </r>
       <r>    1.3994    1.0000 </r>
       <r>    1.4157    1.0000 </r>
       <r>    1.6776    1.0000 </r>
       <r>    1.8187    1.0000 </r>
       <r>    1.8581    1.0000 </r>
       <r>    3.7922    1.0000 </r>
       <r>    4.5800    1.0000 </r>
       <r>    4.5885    1.0000 </r>
       <r>    5.9707    1.0000 </r>
       <r>    6.0587    1.0000 </r>
       <r>    6.1347    1.0000 </r>
       <r>    6.5893    1.0000 </r>
       <r>    6.7079    1.0000 </r>
       <r>    7.3290    1.0000 </r>
       <r>    7.3990    1.0000 </r>
       <r>    7.5980    0.9976 </r>
       <r>    7.9516    1.0161 </r>
       <r>    8.4783    0.0048 </r>
       <r>    8.4822    0.0049 </r>
       <r>    8.5716    0.0026 </r>
       <r>   12.1985    0.0000 </r>
       <r>   12.8095    0.0000 </r>
      </set>
      <set comment="kpoint 15">
       <r>   -1.1375    1.0000 </r>
       <r>    1.2509    1.0000 </r>
       <r>    1.6000    1.0000 </r>
       <r>    1.6288    1.0000 </r>
       <r>    1.8099    1.0000 </r>
       <r>    2.0309    1.0000 </r>
       <r>    2.0744    1.0000 </r>
       <r>    3.6103    1.0000 </r>
       <r>    4.7369    1.0000 </r>
       <r>    4.7525    1.0000 </r>
       <r>    5.5015    1.0000 </r>
       <r>    5.5915    1.0000 </r>
       <r>    5.7889    1.0000 </r>
       <r>    6.1948    1.0000 </r>
       <r>    6.6851    1.0000 </r>
       <r>    7.0366    1.0000 </r>
       <r>    7.1033    1.0000 </r>
       <r>    7.3190    1.0000 </r>
       <r>    7.7031    0.9954 </r>
       <r>    8.1441    0.2213 </r>
       <r>    8.4756    0.0047 </r>
       <r>    8.4808    0.0048 </r>
       <r>   12.8487    0.0000 </r>
       <r>   13.5050    0.0000 </r>
      </set>
      <set comment="kpoint 16">
       <r>   -0.7755    1.0000 </r>
       <r>    1.2751    1.0000 </r>
       <r>    1.8216    1.0000 </r>
       <r>    1.8575    1.0000 </r>
       <r>    1.9646    1.0000 </r>
       <r>    2.2824    1.0000 </r>
       <r>    2.3219    1.0000 </r>
       <r>    3.4086    1.0000 </r>
       <r>    4.8902    1.0000 </r>
       <r>    4.9549    1.0000 </r>
       <r>    4.9728    1.0000 </r>
       <r>    5.0676    1.0000 </r>
       <r>    5.6248    1.0000 </r>
       <r>    5.6959    1.0000 </r>
       <r>    6.7312    1.0000 </r>
       <r>    6.7925    1.0000 </r>
       <r>    6.7965    1.0000 </r>
       <r>    7.0038    1.0000 </r>
       <r>    7.3569    1.0000 </r>
       <r>    7.8718    1.0473 </r>
       <r>    8.4746    0.0047 </r>
       <r>    8.4797    0.0048 </r>
       <r>   13.4503    0.0000 </r>
       <r>   14.1862    0.0000 </r>
      </set>
      <set comment="kpoint 17">
       <r>   -0.3780    1.0000 </r>
       <r>    1.2246    1.0000 </r>
       <r>    2.0463    1.0000 </r>
       <r>    2.0799    1.0000 </r>
       <r>    2.1393    1.0000 </r>
       <r>    2.5715    1.0000 </r>
       <r>    2.5947    1.0000 </r>
       <r>    3.1942    1.0000 </r>
       <r>    4.4770    1.0000 </r>
       <r>    4.5693    1.0000 </r>
       <r>    4.9829    1.0000 </r>
       <r>    5.1865    1.0000 </r>
       <r>    5.2801    1.0000 </r>
       <r>    5.5598    1.0000 </r>
       <r>    6.4455    1.0000 </r>
       <r>    6.4970    1.0000 </r>
       <r>    6.6752    1.0000 </r>
       <r>    6.9215    1.0000 </r>
       <r>    6.9706    1.0000 </r>
       <r>    7.6811    0.9951 </r>
       <r>    8.4746    0.0047 </r>
       <r>    8.4787    0.0048 </r>
       <r>   13.9654    0.0000 </r>
       <r>   14.7632    0.0000 </r>
      </set>
      <set comment="kpoint 18">
       <r>    0.0366    1.0000 </r>
       <r>    1.0682    1.0000 </r>
       <r>    2.2415    1.0000 </r>
       <r>    2.2637    1.0000 </r>
       <r>    2.3313    1.0000 </r>
       <r>    2.8917    1.0000 </r>
       <r>    2.8972    1.0000 </r>
       <r>    2.9736    1.0000 </r>
       <r>    4.0187    1.0000 </r>
       <r>    4.1014    1.0000 </r>
       <r>    4.9480    1.0000 </r>
       <r>    5.0007    1.0000 </r>
       <r>    5.4445    1.0000 </r>
       <r>    5.6839    1.0000 </r>
       <r>    6.2203    1.0000 </r>
       <r>    6.2559    1.0000 </r>
       <r>    6.3470    1.0000 </r>
       <r>    6.5949    1.0000 </r>
       <r>    7.0578    1.0000 </r>
       <r>    7.5141    0.9995 </r>
       <r>    8.4752    0.0047 </r>
       <r>    8.4778    0.0048 </r>
       <r>   14.3539    0.0000 </r>
       <r>   14.8847    0.0000 </r>
      </set>
      <set comment="kpoint 19">
       <r>    0.4413    1.0000 </r>
       <r>    0.7988    1.0000 </r>
       <r>    2.3610    1.0000 </r>
       <r>    2.3683    1.0000 </r>
       <r>    2.5371    1.0000 </r>
       <r>    2.7528    1.0000 </r>
       <r>    3.2191    1.0000 </r>
       <r>    3.2557    1.0000 </r>
       <r>    3.6058    1.0000 </r>
       <r>    3.6693    1.0000 </r>
       <r>    4.8752    1.0000 </r>
       <r>    4.8776    1.0000 </r>
       <r>    5.7263    1.0000 </r>
       <r>    5.9347    1.0000 </r>
       <r>    6.0286    1.0000 </r>
       <r>    6.0995    1.0000 </r>
       <r>    6.1124    1.0000 </r>
       <r>    6.2459    1.0000 </r>
       <r>    7.2032    1.0000 </r>
       <r>    7.3556    1.0000 </r>
       <r>    8.4760    0.0047 </r>
       <r>    8.4769    0.0047 </r>
       <r>   14.6101    0.0000 </r>
       <r>   14.7760    0.0000 </r>
      </set>
      <set comment="kpoint 20">
       <r>   -1.7782    1.0000 </r>
       <r>    1.1413    1.0000 </r>
       <r>    1.1413    1.0000 </r>
       <r>    1.1732    1.0000 </r>
       <r>    1.5724    1.0000 </r>
       <r>    1.5724    1.0000 </r>
       <r>    1.6436    1.0000 </r>
       <r>    4.0194    1.0000 </r>
       <r>    4.3775    1.0000 </r>
       <r>    4.4201    1.0000 </r>
       <r>    6.2338    1.0000 </r>
       <r>    6.4486    1.0000 </r>
       <r>    6.8983    1.0000 </r>
       <r>    6.9545    1.0000 </r>
       <r>    6.9545    1.0000 </r>
       <r>    7.6540    0.9956 </r>
       <r>    7.8248    1.0267 </r>
       <r>    7.8248    1.0267 </r>
       <r>    8.3314   -0.0363 </r>
       <r>    8.3314   -0.0363 </r>
       <r>    8.4185   -0.0020 </r>
       <r>   10.3225    0.0000 </r>
       <r>   10.3225    0.0000 </r>
       <r>   11.9563    0.0000 </r>
      </set>
      <set comment="kpoint 21">
       <r>   -1.5835    1.0000 </r>
       <r>    1.2130    1.0000 </r>
       <r>    1.2861    1.0000 </r>
       <r>    1.2875    1.0000 </r>
       <r>    1.6524    1.0000 </r>
       <r>    1.6992    1.0000 </r>
       <r>    1.7901    1.0000 </r>
       <r>    3.9220    1.0000 </r>
       <r>    4.4619    1.0000 </r>
       <r>    4.5014    1.0000 </r>
       <r>    6.1310    1.0000 </r>
       <r>    6.3706    1.0000 </r>
       <r>    6.4692    1.0000 </r>
       <r>    6.4959    1.0000 </r>
       <r>    6.5934    1.0000 </r>
       <r>    7.4694    0.9998 </r>
       <r>    7.6440    0.9959 </r>
       <r>    7.7203    0.9964 </r>
       <r>    8.1288    0.2919 </r>
       <r>    8.3219   -0.0406 </r>
       <r>    8.3650   -0.0204 </r>
       <r>    9.7243    0.0000 </r>
       <r>   10.9621    0.0000 </r>
       <r>   12.5415    0.0000 </r>
      </set>
      <set comment="kpoint 22">
       <r>   -1.3291    1.0000 </r>
       <r>    1.2911    1.0000 </r>
       <r>    1.4352    1.0000 </r>
       <r>    1.4735    1.0000 </r>
       <r>    1.7574    1.0000 </r>
       <r>    1.8674    1.0000 </r>
       <r>    1.9763    1.0000 </r>
       <r>    3.7834    1.0000 </r>
       <r>    4.5899    1.0000 </r>
       <r>    4.6041    1.0000 </r>
       <r>    5.8056    1.0000 </r>
       <r>    5.9866    1.0000 </r>
       <r>    5.9905    1.0000 </r>
       <r>    6.1735    1.0000 </r>
       <r>    6.5810    1.0000 </r>
       <r>    7.2367    1.0000 </r>
       <r>    7.4090    1.0000 </r>
       <r>    7.5330    0.9992 </r>
       <r>    7.9038    1.0511 </r>
       <r>    8.3147   -0.0436 </r>
       <r>    8.3327   -0.0356 </r>
       <r>    9.1496    0.0000 </r>
       <r>   11.5892    0.0000 </r>
       <r>   13.1811    0.0000 </r>
      </set>
      <set comment="kpoint 23">
       <r>   -1.0201    1.0000 </r>
       <r>    1.3568    1.0000 </r>
       <r>    1.6179    1.0000 </r>
       <r>    1.6903    1.0000 </r>
       <r>    1.8859    1.0000 </r>
       <r>    2.0756    1.0000 </r>
       <r>    2.1934    1.0000 </r>
       <r>    3.6144    1.0000 </r>
       <r>    4.7158    1.0000 </r>
       <r>    4.7568    1.0000 </r>
       <r>    5.2668    1.0000 </r>
       <r>    5.4971    1.0000 </r>
       <r>    5.7289    1.0000 </r>
       <r>    5.8318    1.0000 </r>
       <r>    6.6920    1.0000 </r>
       <r>    6.9679    1.0000 </r>
       <r>    7.1337    1.0000 </r>
       <r>    7.2716    1.0000 </r>
       <r>    7.6551    0.9956 </r>
       <r>    8.3094   -0.0456 </r>
       <r>    8.3141   -0.0438 </r>
       <r>    8.6519    0.0007 </r>
       <r>   12.1846    0.0000 </r>
       <r>   13.8417    0.0000 </r>
      </set>
      <set comment="kpoint 24">
       <r>   -0.6644    1.0000 </r>
       <r>    1.3817    1.0000 </r>
       <r>    1.8290    1.0000 </r>
       <r>    1.9242    1.0000 </r>
       <r>    2.0360    1.0000 </r>
       <r>    2.3219    1.0000 </r>
       <r>    2.4297    1.0000 </r>
       <r>    3.4241    1.0000 </r>
       <r>    4.7594    1.0000 </r>
       <r>    4.8108    1.0000 </r>
       <r>    4.9560    1.0000 </r>
       <r>    5.0088    1.0000 </r>
       <r>    5.3070    1.0000 </r>
       <r>    5.7102    1.0000 </r>
       <r>    6.6853    1.0000 </r>
       <r>    6.8238    1.0000 </r>
       <r>    6.8386    1.0000 </r>
       <r>    6.9667    1.0000 </r>
       <r>    7.3602    1.0000 </r>
       <r>    8.2581   -0.0470 </r>
       <r>    8.3037   -0.0475 </r>
       <r>    8.3053   -0.0470 </r>
       <r>   12.7278    0.0000 </r>
       <r>   14.4578    0.0000 </r>
      </set>
      <set comment="kpoint 25">
       <r>   -0.2732    1.0000 </r>
       <r>    1.3297    1.0000 </r>
       <r>    2.0570    1.0000 </r>
       <r>    2.1538    1.0000 </r>
       <r>    2.2052    1.0000 </r>
       <r>    2.6037    1.0000 </r>
       <r>    2.6712    1.0000 </r>
       <r>    3.2200    1.0000 </r>
       <r>    4.2889    1.0000 </r>
       <r>    4.5374    1.0000 </r>
       <r>    4.8370    1.0000 </r>
       <r>    4.9634    1.0000 </r>
       <r>    5.1847    1.0000 </r>
       <r>    5.6912    1.0000 </r>
       <r>    6.4214    1.0000 </r>
       <r>    6.5515    1.0000 </r>
       <r>    6.6454    1.0000 </r>
       <r>    6.9731    1.0000 </r>
       <r>    7.0216    1.0000 </r>
       <r>    7.9584    1.0055 </r>
       <r>    8.2984   -0.0491 </r>
       <r>    8.3020   -0.0481 </r>
       <r>   13.1982    0.0000 </r>
       <r>   14.5270    0.0000 </r>
      </set>
      <set comment="kpoint 26">
       <r>    0.1361    1.0000 </r>
       <r>    1.1694    1.0000 </r>
       <r>    2.2744    1.0000 </r>
       <r>    2.3450    1.0000 </r>
       <r>    2.3908    1.0000 </r>
       <r>    2.9101    1.0000 </r>
       <r>    2.9185    1.0000 </r>
       <r>    3.0089    1.0000 </r>
       <r>    3.8636    1.0000 </r>
       <r>    4.0908    1.0000 </r>
       <r>    4.7450    1.0000 </r>
       <r>    4.7771    1.0000 </r>
       <r>    5.4393    1.0000 </r>
       <r>    5.8143    1.0000 </r>
       <r>    6.2184    1.0000 </r>
       <r>    6.3089    1.0000 </r>
       <r>    6.3240    1.0000 </r>
       <r>    6.6709    1.0000 </r>
       <r>    7.1375    1.0000 </r>
       <r>    7.7175    0.9962 </r>
       <r>    8.2963   -0.0496 </r>
       <r>    8.2993   -0.0488 </r>
       <r>   13.5821    0.0000 </r>
       <r>   14.3319    0.0000 </r>
      </set>
      <set comment="kpoint 27">
       <r>    0.5379    1.0000 </r>
       <r>    0.8961    1.0000 </r>
       <r>    2.4258    1.0000 </r>
       <r>    2.4504    1.0000 </r>
       <r>    2.5893    1.0000 </r>
       <r>    2.7969    1.0000 </r>
       <r>    3.1595    1.0000 </r>
       <r>    3.2500    1.0000 </r>
       <r>    3.5105    1.0000 </r>
       <r>    3.6784    1.0000 </r>
       <r>    4.6650    1.0000 </r>
       <r>    4.6946    1.0000 </r>
       <r>    5.7162    1.0000 </r>
       <r>    6.0124    1.0000 </r>
       <r>    6.0437    1.0000 </r>
       <r>    6.1201    1.0000 </r>
       <r>    6.1531    1.0000 </r>
       <r>    6.3376    1.0000 </r>
       <r>    7.3156    1.0000 </r>
       <r>    7.5075    0.9995 </r>
       <r>    8.2961   -0.0496 </r>
       <r>    8.2973   -0.0493 </r>
       <r>   13.8828    0.0000 </r>
       <r>   14.1226    0.0000 </r>
      </set>
      <set comment="kpoint 28">
       <r>   -1.3943    1.0000 </r>
       <r>    1.3617    1.0000 </r>
       <r>    1.3617    1.0000 </r>
       <r>    1.3756    1.0000 </r>
       <r>    1.7759    1.0000 </r>
       <r>    1.7759    1.0000 </r>
       <r>    1.9458    1.0000 </r>
       <r>    3.8585    1.0000 </r>
       <r>    4.5205    1.0000 </r>
       <r>    4.5585    1.0000 </r>
       <r>    6.0295    1.0000 </r>
       <r>    6.0295    1.0000 </r>
       <r>    6.0760    1.0000 </r>
       <r>    6.1550    1.0000 </r>
       <r>    6.5254    1.0000 </r>
       <r>    7.3063    1.0000 </r>
       <r>    7.5728    0.9984 </r>
       <r>    7.5728    0.9984 </r>
       <r>    8.1046    0.4137 </r>
       <r>    8.1046    0.4137 </r>
       <r>    8.2589   -0.0474 </r>
       <r>   10.3347    0.0000 </r>
       <r>   10.3347    0.0000 </r>
       <r>   13.0717    0.0000 </r>
      </set>
      <set comment="kpoint 29">
       <r>   -1.1469    1.0000 </r>
       <r>    1.4430    1.0000 </r>
       <r>    1.5003    1.0000 </r>
       <r>    1.5515    1.0000 </r>
       <r>    1.8765    1.0000 </r>
       <r>    1.9396    1.0000 </r>
       <r>    2.1368    1.0000 </r>
       <r>    3.7512    1.0000 </r>
       <r>    4.6257    1.0000 </r>
       <r>    4.6292    1.0000 </r>
       <r>    5.4883    1.0000 </r>
       <r>    5.6467    1.0000 </r>
       <r>    5.7716    1.0000 </r>
       <r>    5.9695    1.0000 </r>
       <r>    6.6125    1.0000 </r>
       <r>    7.1008    1.0000 </r>
       <r>    7.3697    1.0000 </r>
       <r>    7.4243    0.9999 </r>
       <r>    7.8556    1.0411 </r>
       <r>    8.0870    0.5063 </r>
       <r>    8.1808    0.0831 </r>
       <r>    9.7270    0.0000 </r>
       <r>   10.9272    0.0000 </r>
       <r>   13.6663    0.0000 </r>
      </set>
      <set comment="kpoint 30">
       <r>   -0.8466    1.0000 </r>
       <r>    1.5116    1.0000 </r>
       <r>    1.6605    1.0000 </r>
       <r>    1.7737    1.0000 </r>
       <r>    1.9994    1.0000 </r>
       <r>    2.1421    1.0000 </r>
       <r>    2.3511    1.0000 </r>
       <r>    3.6078    1.0000 </r>
       <r>    4.6961    1.0000 </r>
       <r>    4.7786    1.0000 </r>
       <r>    4.9751    1.0000 </r>
       <r>    5.2553    1.0000 </r>
       <r>    5.3504    1.0000 </r>
       <r>    5.8467    1.0000 </r>
       <r>    6.7427    1.0000 </r>
       <r>    6.8625    1.0000 </r>
       <r>    7.1234    1.0000 </r>
       <r>    7.1975    1.0000 </r>
       <r>    7.5886    0.9979 </r>
       <r>    8.0749    0.5699 </r>
       <r>    8.1280    0.2956 </r>
       <r>    9.1837    0.0000 </r>
       <r>   11.4869    0.0000 </r>
       <r>   14.2634    0.0000 </r>
      </set>
      <set comment="kpoint 31">
       <r>   -0.5005    1.0000 </r>
       <r>    1.5377    1.0000 </r>
       <r>    1.8545    1.0000 </r>
       <r>    2.0157    1.0000 </r>
       <r>    2.1425    1.0000 </r>
       <r>    2.3807    1.0000 </r>
       <r>    2.5727    1.0000 </r>
       <r>    3.4387    1.0000 </r>
       <r>    4.4949    1.0000 </r>
       <r>    4.7364    1.0000 </r>
       <r>    4.8972    1.0000 </r>
       <r>    4.9160    1.0000 </r>
       <r>    4.9680    1.0000 </r>
       <r>    5.7571    1.0000 </r>
       <r>    6.6101    1.0000 </r>
       <r>    6.8525    1.0000 </r>
       <r>    6.9036    1.0000 </r>
       <r>    6.9153    1.0000 </r>
       <r>    7.2990    1.0000 </r>
       <r>    8.0664    0.6139 </r>
       <r>    8.0942    0.4679 </r>
       <r>    8.7247    0.0001 </r>
       <r>   11.9988    0.0000 </r>
       <r>   14.2158    0.0000 </r>
      </set>
      <set comment="kpoint 32">
       <r>   -0.1192    1.0000 </r>
       <r>    1.4829    1.0000 </r>
       <r>    2.0765    1.0000 </r>
       <r>    2.2569    1.0000 </r>
       <r>    2.3032    1.0000 </r>
       <r>    2.6515    1.0000 </r>
       <r>    2.7803    1.0000 </r>
       <r>    3.2528    1.0000 </r>
       <r>    4.0542    1.0000 </r>
       <r>    4.4856    1.0000 </r>
       <r>    4.6219    1.0000 </r>
       <r>    4.7128    1.0000 </r>
       <r>    5.1896    1.0000 </r>
       <r>    5.7574    1.0000 </r>
       <r>    6.3752    1.0000 </r>
       <r>    6.5818    1.0000 </r>
       <r>    6.6081    1.0000 </r>
       <r>    6.9847    1.0000 </r>
       <r>    7.0884    1.0000 </r>
       <r>    8.0605    0.6442 </r>
       <r>    8.0736    0.5765 </r>
       <r>    8.3476   -0.0285 </r>
       <r>   12.4500    0.0000 </r>
       <r>   13.9378    0.0000 </r>
      </set>
      <set comment="kpoint 33">
       <r>    0.2815    1.0000 </r>
       <r>    1.3158    1.0000 </r>
       <r>    2.3110    1.0000 </r>
       <r>    2.4622    1.0000 </r>
       <r>    2.4787    1.0000 </r>
       <r>    2.9480    1.0000 </r>
       <r>    2.9526    1.0000 </r>
       <r>    3.0579    1.0000 </r>
       <r>    3.6676    1.0000 </r>
       <r>    4.0715    1.0000 </r>
       <r>    4.4694    1.0000 </r>
       <r>    4.6229    1.0000 </r>
       <r>    5.4377    1.0000 </r>
       <r>    5.8721    1.0000 </r>
       <r>    6.2001    1.0000 </r>
       <r>    6.2973    1.0000 </r>
       <r>    6.3445    1.0000 </r>
       <r>    6.6609    1.0000 </r>
       <r>    7.2934    1.0000 </r>
       <r>    8.0336    0.7724 </r>
       <r>    8.0566    0.6636 </r>
       <r>    8.0620    0.6364 </r>
       <r>   12.8337    0.0000 </r>
       <r>   13.6809    0.0000 </r>
      </set>
      <set comment="kpoint 34">
       <r>    0.6781    1.0000 </r>
       <r>    1.0368    1.0000 </r>
       <r>    2.5094    1.0000 </r>
       <r>    2.5703    1.0000 </r>
       <r>    2.6657    1.0000 </r>
       <r>    2.8603    1.0000 </r>
       <r>    3.0962    1.0000 </r>
       <r>    3.2066    1.0000 </r>
       <r>    3.4232    1.0000 </r>
       <r>    3.6863    1.0000 </r>
       <r>    4.4446    1.0000 </r>
       <r>    4.5136    1.0000 </r>
       <r>    5.7073    1.0000 </r>
       <r>    5.9950    1.0000 </r>
       <r>    6.0802    1.0000 </r>
       <r>    6.1280    1.0000 </r>
       <r>    6.1807    1.0000 </r>
       <r>    6.3515    1.0000 </r>
       <r>    7.5172    0.9994 </r>
       <r>    7.7616    1.0029 </r>
       <r>    8.0551    0.6713 </r>
       <r>    8.0565    0.6644 </r>
       <r>   13.1544    0.0000 </r>
       <r>   13.4284    0.0000 </r>
      </set>
      <set comment="kpoint 35">
       <r>   -0.9091    1.0000 </r>
       <r>    1.5990    1.0000 </r>
       <r>    1.6373    1.0000 </r>
       <r>    1.6373    1.0000 </r>
       <r>    2.0343    1.0000 </r>
       <r>    2.0343    1.0000 </r>
       <r>    2.3275    1.0000 </r>
       <r>    3.6836    1.0000 </r>
       <r>    4.6572    1.0000 </r>
       <r>    4.7059    1.0000 </r>
       <r>    5.1407    1.0000 </r>
       <r>    5.1407    1.0000 </r>
       <r>    5.4859    1.0000 </r>
       <r>    5.9027    1.0000 </r>
       <r>    6.7081    1.0000 </r>
       <r>    6.9262    1.0000 </r>
       <r>    7.2601    1.0000 </r>
       <r>    7.2601    1.0000 </r>
       <r>    7.8202    1.0244 </r>
       <r>    7.8202    1.0244 </r>
       <r>    8.0503    0.6950 </r>
       <r>   10.2884    0.0000 </r>
       <r>   10.2884    0.0000 </r>
       <r>   14.1988    0.0000 </r>
      </set>
      <set comment="kpoint 36">
       <r>   -0.6203    1.0000 </r>
       <r>    1.7102    1.0000 </r>
       <r>    1.7334    1.0000 </r>
       <r>    1.8661    1.0000 </r>
       <r>    2.1497    1.0000 </r>
       <r>    2.2294    1.0000 </r>
       <r>    2.5345    1.0000 </r>
       <r>    3.5787    1.0000 </r>
       <r>    4.6614    1.0000 </r>
       <r>    4.6809    1.0000 </r>
       <r>    4.7962    1.0000 </r>
       <r>    4.8321    1.0000 </r>
       <r>    5.1503    1.0000 </r>
       <r>    5.8102    1.0000 </r>
       <r>    6.7211    1.0000 </r>
       <r>    6.8613    1.0000 </r>
       <r>    7.0485    1.0000 </r>
       <r>    7.0749    1.0000 </r>
       <r>    7.5317    0.9992 </r>
       <r>    7.7973    1.0144 </r>
       <r>    7.9501    1.0183 </r>
       <r>    9.7104    0.0000 </r>
       <r>   10.8208    0.0000 </r>
       <r>   14.0326    0.0000 </r>
      </set>
      <set comment="kpoint 37">
       <r>   -0.2873    1.0000 </r>
       <r>    1.7374    1.0000 </r>
       <r>    1.9035    1.0000 </r>
       <r>    2.1177    1.0000 </r>
       <r>    2.2833    1.0000 </r>
       <r>    2.4586    1.0000 </r>
       <r>    2.7391    1.0000 </r>
       <r>    3.4430    1.0000 </r>
       <r>    4.2139    1.0000 </r>
       <r>    4.4959    1.0000 </r>
       <r>    4.6757    1.0000 </r>
       <r>    4.7855    1.0000 </r>
       <r>    5.0021    1.0000 </r>
       <r>    5.7405    1.0000 </r>
       <r>    6.5022    1.0000 </r>
       <r>    6.8073    1.0000 </r>
       <r>    6.8275    1.0000 </r>
       <r>    7.0559    1.0000 </r>
       <r>    7.2290    1.0000 </r>
       <r>    7.7830    1.0091 </r>
       <r>    7.8786    1.0492 </r>
       <r>    9.2087    0.0000 </r>
       <r>   11.3121    0.0000 </r>
       <r>   13.6622    0.0000 </r>
      </set>
      <set comment="kpoint 38">
       <r>    0.0802    1.0000 </r>
       <r>    1.6775    1.0000 </r>
       <r>    2.1079    1.0000 </r>
       <r>    2.3747    1.0000 </r>
       <r>    2.4321    1.0000 </r>
       <r>    2.7156    1.0000 </r>
       <r>    2.9147    1.0000 </r>
       <r>    3.2857    1.0000 </r>
       <r>    3.8050    1.0000 </r>
       <r>    4.2876    1.0000 </r>
       <r>    4.4102    1.0000 </r>
       <r>    4.6145    1.0000 </r>
       <r>    5.2083    1.0000 </r>
       <r>    5.7453    1.0000 </r>
       <r>    6.2987    1.0000 </r>
       <r>    6.5451    1.0000 </r>
       <r>    6.5595    1.0000 </r>
       <r>    6.9150    1.0000 </r>
       <r>    7.2805    1.0000 </r>
       <r>    7.7745    1.0064 </r>
       <r>    7.8303    1.0293 </r>
       <r>    8.7815    0.0000 </r>
       <r>   11.7525    0.0000 </r>
       <r>   13.3380    0.0000 </r>
      </set>
      <set comment="kpoint 39">
       <r>    0.4683    1.0000 </r>
       <r>    1.5002    1.0000 </r>
       <r>    2.3416    1.0000 </r>
       <r>    2.5933    1.0000 </r>
       <r>    2.6053    1.0000 </r>
       <r>    2.9821    1.0000 </r>
       <r>    3.0289    1.0000 </r>
       <r>    3.1154    1.0000 </r>
       <r>    3.4589    1.0000 </r>
       <r>    4.0401    1.0000 </r>
       <r>    4.2052    1.0000 </r>
       <r>    4.4962    1.0000 </r>
       <r>    5.4424    1.0000 </r>
       <r>    5.8494    1.0000 </r>
       <r>    6.1522    1.0000 </r>
       <r>    6.2533    1.0000 </r>
       <r>    6.3349    1.0000 </r>
       <r>    6.5994    1.0000 </r>
       <r>    7.5288    0.9993 </r>
       <r>    7.7711    1.0054 </r>
       <r>    7.7996    1.0154 </r>
       <r>    8.4146   -0.0029 </r>
       <r>   12.1374    0.0000 </r>
       <r>   13.0473    0.0000 </r>
      </set>
      <set comment="kpoint 40">
       <r>    0.8562    1.0000 </r>
       <r>    1.2137    1.0000 </r>
       <r>    2.5841    1.0000 </r>
       <r>    2.7227    1.0000 </r>
       <r>    2.7637    1.0000 </r>
       <r>    2.9394    1.0000 </r>
       <r>    3.0630    1.0000 </r>
       <r>    3.0899    1.0000 </r>
       <r>    3.3944    1.0000 </r>
       <r>    3.6897    1.0000 </r>
       <r>    4.2417    1.0000 </r>
       <r>    4.3556    1.0000 </r>
       <r>    5.6971    1.0000 </r>
       <r>    5.9683    1.0000 </r>
       <r>    6.0425    1.0000 </r>
       <r>    6.1038    1.0000 </r>
       <r>    6.1706    1.0000 </r>
       <r>    6.3009    1.0000 </r>
       <r>    7.7730    1.0059 </r>
       <r>    7.7817    1.0087 </r>
       <r>    7.7984    1.0148 </r>
       <r>    8.0913    0.4836 </r>
       <r>   12.4709    0.0000 </r>
       <r>   12.7668    0.0000 </r>
      </set>
      <set comment="kpoint 41">
       <r>   -0.3457    1.0000 </r>
       <r>    1.8393    1.0000 </r>
       <r>    1.9446    1.0000 </r>
       <r>    1.9446    1.0000 </r>
       <r>    2.3356    1.0000 </r>
       <r>    2.3356    1.0000 </r>
       <r>    2.7291    1.0000 </r>
       <r>    3.5188    1.0000 </r>
       <r>    4.3603    1.0000 </r>
       <r>    4.3603    1.0000 </r>
       <r>    4.6634    1.0000 </r>
       <r>    4.9017    1.0000 </r>
       <r>    4.9281    1.0000 </r>
       <r>    5.7384    1.0000 </r>
       <r>    6.5498    1.0000 </r>
       <r>    6.9011    1.0000 </r>
[...]
       <r>    8.6340    0.0009 </r>
       <r>    9.0514    0.0000 </r>
       <r>    9.0514    0.0000 </r>
       <r>    9.3727    0.0000 </r>
      </set>
      <set comment="kpoint 217">
       <r>    0.6564    1.0000 </r>
       <r>    0.8380    1.0000 </r>
       <r>    0.8380    1.0000 </r>
       <r>    0.8380    1.0000 </r>
       <r>    4.0116    1.0000 </r>
       <r>    4.0116    1.0000 </r>
       <r>    4.0116    1.0000 </r>
       <r>    4.2185    1.0000 </r>
       <r>    4.2185    1.0000 </r>
       <r>    4.3224    1.0000 </r>
       <r>    4.3224    1.0000 </r>
       <r>    4.3224    1.0000 </r>
       <r>    6.4105    1.0000 </r>
       <r>    6.4105    1.0000 </r>
       <r>    6.4105    1.0000 </r>
       <r>    6.6821    1.0000 </r>
       <r>    7.9217    1.0453 </r>
       <r>    7.9217    1.0453 </r>
       <r>    8.1463    0.2118 </r>
       <r>    8.1463    0.2118 </r>
       <r>    8.1463    0.2118 </r>
       <r>    9.3006    0.0000 </r>
       <r>    9.3006    0.0000 </r>
       <r>    9.3006    0.0000 </r>
      </set>
      <set comment="kpoint 218">
       <r>    0.6786    1.0000 </r>
       <r>    0.7393    1.0000 </r>
       <r>    0.7982    1.0000 </r>
       <r>    0.7982    1.0000 </r>
       <r>    4.0411    1.0000 </r>
       <r>    4.0411    1.0000 </r>
       <r>    4.1032    1.0000 </r>
       <r>    4.1731    1.0000 </r>
       <r>    4.2168    1.0000 </r>
       <r>    4.2517    1.0000 </r>
       <r>    4.2772    1.0000 </r>
       <r>    4.2772    1.0000 </r>
       <r>    6.6425    1.0000 </r>
       <r>    6.6425    1.0000 </r>
       <r>    6.6865    1.0000 </r>
       <r>    6.8402    1.0000 </r>
       <r>    8.0541    0.6763 </r>
       <r>    8.1146    0.3621 </r>
       <r>    8.1146    0.3621 </r>
       <r>    8.1301    0.2855 </r>
       <r>    8.1361    0.2576 </r>
       <r>    8.6635    0.0005 </r>
       <r>    9.2330    0.0000 </r>
       <r>    9.2330    0.0000 </r>
      </set>
      <set comment="kpoint 219">
       <r>    0.6781    1.0000 </r>
       <r>    0.7181    1.0000 </r>
       <r>    0.7181    1.0000 </r>
       <r>    0.7378    1.0000 </r>
       <r>    4.0927    1.0000 </r>
       <r>    4.1137    1.0000 </r>
       <r>    4.1137    1.0000 </r>
       <r>    4.1636    1.0000 </r>
       <r>    4.1894    1.0000 </r>
       <r>    4.2150    1.0000 </r>
       <r>    4.2150    1.0000 </r>
       <r>    4.2236    1.0000 </r>
       <r>    6.9254    1.0000 </r>
       <r>    6.9599    1.0000 </r>
       <r>    6.9599    1.0000 </r>
       <r>    7.0956    1.0000 </r>
       <r>    8.0221    0.8213 </r>
       <r>    8.0957    0.4601 </r>
       <r>    8.0957    0.4601 </r>
       <r>    8.0987    0.4445 </r>
       <r>    8.3237   -0.0398 </r>
       <r>    8.7124    0.0002 </r>
       <r>    8.7124    0.0002 </r>
       <r>    8.9190    0.0000 </r>
      </set>
      <set comment="kpoint 220">
       <r>    0.6562    1.0000 </r>
       <r>    0.6762    1.0000 </r>
       <r>    0.6762    1.0000 </r>
       <r>    0.6762    1.0000 </r>
       <r>    4.1402    1.0000 </r>
       <r>    4.1402    1.0000 </r>
       <r>    4.1402    1.0000 </r>
       <r>    4.1641    1.0000 </r>
       <r>    4.1641    1.0000 </r>
       <r>    4.1756    1.0000 </r>
       <r>    4.1756    1.0000 </r>
       <r>    4.1756    1.0000 </r>
       <r>    7.3387    1.0000 </r>
       <r>    7.3387    1.0000 </r>
       <r>    7.3387    1.0000 </r>
       <r>    7.5093    0.9995 </r>
       <r>    8.1084    0.3937 </r>
       <r>    8.1084    0.3937 </r>
       <r>    8.1343    0.2656 </r>
       <r>    8.1343    0.2656 </r>
       <r>    8.1343    0.2656 </r>
       <r>    8.4250   -0.0006 </r>
       <r>    8.4250   -0.0006 </r>
       <r>    8.4250   -0.0006 </r>
      </set>
     </set>
    </set>
   </array>
  </eigenvalues>
  <separator name="orbital magnetization" >
   <v name="MAGDIPOLOUT">      0.00000000      0.00000000      0.00000000</v>
  </separator>
  <dos>
   <i name="efermi">      8.08815833 </i>
   <total>
    <array>
     <dimension dim="1">gridpoints</dimension>
     <dimension dim="2">spin</dimension>
     <field>energy</field>
     <field>total</field>
     <field>integrated</field>
     <set>
      <set comment="spin 1">
       <r>    -4.1793     0.0000     0.0000 </r>
       <r>    -4.1081     0.0000     0.0000 </r>
       <r>    -4.0368     0.0000     0.0000 </r>
       <r>    -3.9655     0.0000     0.0000 </r>
       <r>    -3.8942     0.0000     0.0000 </r>
       <r>    -3.8229     0.0000     0.0000 </r>
       <r>    -3.7517     0.0000     0.0000 </r>
       <r>    -3.6804     0.0000     0.0000 </r>
       <r>    -3.6091     0.0000     0.0000 </r>
       <r>    -3.5378     0.0000     0.0000 </r>
       <r>    -3.4665     0.0000     0.0000 </r>
       <r>    -3.3953     0.0000     0.0000 </r>
       <r>    -3.3240     0.0000     0.0000 </r>
       <r>    -3.2527     0.0000     0.0000 </r>
       <r>    -3.1814     0.0000     0.0000 </r>
       <r>    -3.1101     0.0000     0.0000 </r>
       <r>    -3.0389     0.0000     0.0000 </r>
       <r>    -2.9676     0.0000     0.0000 </r>
       <r>    -2.8963     0.0000     0.0000 </r>
       <r>    -2.8250     0.0000     0.0000 </r>
       <r>    -2.7537     0.0000     0.0000 </r>
       <r>    -2.6825     0.0001     0.0000 </r>
       <r>    -2.6112     0.0003     0.0000 </r>
       <r>    -2.5399     0.0004     0.0001 </r>
       <r>    -2.4686    -0.0002     0.0000 </r>
       <r>    -2.3973    -0.0020    -0.0001 </r>
       <r>    -2.3261    -0.0035    -0.0004 </r>
       <r>    -2.2548     0.0018    -0.0002 </r>
       <r>    -2.1835     0.0203     0.0012 </r>
       <r>    -2.1122     0.0513     0.0049 </r>
       <r>    -2.0409     0.0856     0.0110 </r>
       <r>    -1.9697     0.1137     0.0191 </r>
       <r>    -1.8984     0.1337     0.0286 </r>
       <r>    -1.8271     0.1515     0.0394 </r>
       <r>    -1.7558     0.1706     0.0516 </r>
       <r>    -1.6845     0.1850     0.0648 </r>
       <r>    -1.6133     0.1944     0.0786 </r>
       <r>    -1.5420     0.2100     0.0936 </r>
       <r>    -1.4707     0.2337     0.1102 </r>
       <r>    -1.3994     0.2504     0.1281 </r>
       <r>    -1.3281     0.2514     0.1460 </r>
       <r>    -1.2569     0.2542     0.1641 </r>
       <r>    -1.1856     0.2812     0.1842 </r>
       <r>    -1.1143     0.3175     0.2068 </r>
       <r>    -1.0430     0.3260     0.2300 </r>
       <r>    -0.9717     0.3110     0.2522 </r>
       <r>    -0.9005     0.3166     0.2748 </r>
       <r>    -0.8292     0.3551     0.3001 </r>
       <r>    -0.7579     0.3906     0.3279 </r>
       <r>    -0.6866     0.4025     0.3566 </r>
       <r>    -0.6153     0.4040     0.3854 </r>
       <r>    -0.5441     0.4044     0.4142 </r>
       <r>    -0.4728     0.4110     0.4435 </r>
       <r>    -0.4015     0.4451     0.4753 </r>
       <r>    -0.3302     0.5040     0.5112 </r>
       <r>    -0.2589     0.5374     0.5495 </r>
       <r>    -0.1877     0.5150     0.5862 </r>
       <r>    -0.1164     0.4901     0.6211 </r>
       <r>    -0.0451     0.5338     0.6592 </r>
       <r>     0.0262     0.6230     0.7036 </r>
       <r>     0.0975     0.6701     0.7514 </r>
       <r>     0.1687     0.6604     0.7984 </r>
       <r>     0.2400     0.6710     0.8463 </r>
       <r>     0.3113     0.7333     0.8985 </r>
       <r>     0.3826     0.7874     0.9547 </r>
       <r>     0.4539     0.8233     1.0133 </r>
       <r>     0.5251     0.9347     1.0800 </r>
       <r>     0.5964     1.1866     1.1645 </r>
       <r>     0.6677     1.5249     1.2732 </r>
       <r>     0.7390     1.8431     1.4046 </r>
       <r>     0.8103     2.0909     1.5536 </r>
       <r>     0.8815     2.2818     1.7163 </r>
       <r>     0.9528     2.4505     1.8910 </r>
       <r>     1.0241     2.6628     2.0808 </r>
       <r>     1.0954     2.9747     2.2928 </r>
       <r>     1.1667     3.3419     2.5310 </r>
       <r>     1.2379     3.6696     2.7926 </r>
       <r>     1.3092     3.9561     3.0746 </r>
       <r>     1.3805     4.2826     3.3798 </r>
       <r>     1.4518     4.6770     3.7132 </r>
       <r>     1.5231     5.0922     4.0762 </r>
       <r>     1.5943     5.4670     4.4659 </r>
       <r>     1.6656     5.7291     4.8742 </r>
       <r>     1.7369     5.8260     5.2895 </r>
       <r>     1.8082     5.7806     5.7016 </r>
       <r>     1.8795     5.6449     6.1039 </r>
       <r>     1.9507     5.4566     6.4929 </r>
       <r>     2.0220     5.2827     6.8694 </r>
       <r>     2.0933     5.1622     7.2374 </r>
       <r>     2.1646     5.0568     7.5978 </r>
       <r>     2.2359     5.0011     7.9543 </r>
       <r>     2.3071     5.0431     8.3138 </r>
       <r>     2.3784     5.0029     8.6704 </r>
       <r>     2.4497     4.7161     9.0066 </r>
       <r>     2.5210     4.3277     9.3150 </r>
       <r>     2.5923     3.9689     9.5979 </r>
       <r>     2.6635     3.5892     9.8538 </r>
       <r>     2.7348     3.3304    10.0912 </r>
       <r>     2.8061     3.5330    10.3430 </r>
       <r>     2.8774     4.2139    10.6434 </r>
       <r>     2.9487     4.8970    10.9924 </r>
       <r>     3.0199     5.1502    11.3595 </r>
       <r>     3.0912     5.0904    11.7224 </r>
       <r>     3.1625     5.0960    12.0856 </r>
       <r>     3.2338     5.2476    12.4597 </r>
       <r>     3.3051     5.3833    12.8434 </r>
       <r>     3.3763     5.4253    13.2301 </r>
       <r>     3.4476     5.3818    13.6137 </r>
       <r>     3.5189     5.3299    13.9936 </r>
       <r>     3.5902     5.4420    14.3815 </r>
       <r>     3.6615     5.7275    14.7898 </r>
       <r>     3.7327     5.9229    15.2120 </r>
       <r>     3.8040     5.8572    15.6295 </r>
       <r>     3.8753     5.7106    16.0365 </r>
       <r>     3.9466     5.8010    16.4500 </r>
       <r>     4.0179     6.1966    16.8917 </r>
       <r>     4.0891     6.6251    17.3640 </r>
       <r>     4.1604     6.8307    17.8509 </r>
       <r>     4.2317     6.8854    18.3417 </r>
       <r>     4.3030     7.0348    18.8431 </r>
       <r>     4.3743     7.4182    19.3719 </r>
       <r>     4.4455     8.0605    19.9464 </r>
       <r>     4.5168     8.8938    20.5804 </r>
       <r>     4.5881     9.5776    21.2631 </r>
       <r>     4.6594     9.5467    21.9435 </r>
       <r>     4.7307     8.5576    22.5535 </r>
       <r>     4.8019     7.1025    23.0598 </r>
       <r>     4.8732     5.9926    23.4869 </r>
       <r>     4.9445     5.5272    23.8809 </r>
       <r>     5.0158     5.3446    24.2619 </r>
       <r>     5.0871     5.0843    24.6243 </r>
       <r>     5.1583     4.7760    24.9647 </r>
       <r>     5.2296     4.5349    25.2880 </r>
       <r>     5.3009     4.3751    25.5998 </r>
       <r>     5.3722     4.3436    25.9094 </r>
       <r>     5.4435     4.4088    26.2237 </r>
       <r>     5.5147     4.3963    26.5371 </r>
       <r>     5.5860     4.3369    26.8462 </r>
       <r>     5.6573     4.4885    27.1661 </r>
       <r>     5.7286     4.8663    27.5130 </r>
       <r>     5.7999     5.1848    27.8826 </r>
       <r>     5.8711     5.3286    28.2624 </r>
       <r>     5.9424     5.5245    28.6562 </r>
       <r>     6.0137     5.9291    29.0788 </r>
       <r>     6.0850     6.3134    29.5288 </r>
       <r>     6.1563     6.3578    29.9820 </r>
       <r>     6.2275     6.0227    30.4113 </r>
       <r>     6.2988     5.4720    30.8014 </r>
       <r>     6.3701     4.9396    31.1535 </r>
       <r>     6.4414     4.6944    31.4881 </r>
       <r>     6.5127     4.7880    31.8294 </r>
       <r>     6.5839     4.9271    32.1806 </r>
       <r>     6.6552     4.8291    32.5248 </r>
       <r>     6.7265     4.5455    32.8488 </r>
       <r>     6.7978     4.3235    33.1570 </r>
       <r>     6.8691     4.2883    33.4626 </r>
       <r>     6.9403     4.3612    33.7735 </r>
       <r>     7.0116     4.3839    34.0860 </r>
       <r>     7.0829     4.2742    34.3907 </r>
       <r>     7.1542     4.1607    34.6872 </r>
       <r>     7.2255     4.2395    34.9894 </r>
       <r>     7.2967     4.4426    35.3061 </r>
       <r>     7.3680     4.5519    35.6305 </r>
       <r>     7.4393     4.5709    35.9564 </r>
       <r>     7.5106     4.6112    36.2850 </r>
       <r>     7.5819     4.6704    36.6180 </r>
       <r>     7.6531     4.8417    36.9631 </r>
       <r>     7.7244     5.3320    37.3431 </r>
       <r>     7.7957     6.0731    37.7760 </r>
       <r>     7.8670     6.7751    38.2590 </r>
       <r>     7.9383     7.3920    38.7859 </r>
       <r>     8.0095     7.9879    39.3552 </r>
       <r>     8.0808     8.2171    39.9410 </r>
       <r>     8.1521     7.6456    40.4859 </r>
       <r>     8.2234     6.5073    40.9498 </r>
       <r>     8.2947     5.4299    41.3368 </r>
       <r>     8.3659     4.6317    41.6670 </r>
       <r>     8.4372     3.9228    41.9466 </r>
       <r>     8.5085     3.1366    42.1702 </r>
       <r>     8.5798     2.3068    42.3346 </r>
       <r>     8.6511     1.6833    42.4546 </r>
       <r>     8.7223     1.4640    42.5589 </r>
       <r>     8.7936     1.4385    42.6615 </r>
       <r>     8.8649     1.2280    42.7490 </r>
       <r>     8.9362     0.8298    42.8082 </r>
       <r>     9.0075     0.5931    42.8504 </r>
       <r>     9.0787     0.7523    42.9041 </r>
       <r>     9.1500     1.1864    42.9886 </r>
       <r>     9.2213     1.5294    43.0976 </r>
       <r>     9.2926     1.4844    43.2035 </r>
       <r>     9.3639     1.1117    43.2827 </r>
       <r>     9.4351     0.7486    43.3361 </r>
       <r>     9.5064     0.6804    43.3846 </r>
       <r>     9.5777     0.9458    43.4520 </r>
       <r>     9.6490     1.3121    43.5455 </r>
       <r>     9.7203     1.4327    43.6476 </r>
       <r>     9.7915     1.1985    43.7331 </r>
       <r>     9.8628     0.8836    43.7960 </r>
       <r>     9.9341     0.8215    43.8546 </r>
       <r>    10.0054     1.0279    43.9279 </r>
       <r>    10.0767     1.2315    44.0156 </r>
       <r>    10.1479     1.2226    44.1028 </r>
       <r>    10.2192     1.0810    44.1798 </r>
       <r>    10.2905     1.0228    44.2528 </r>
       <r>    10.3618     1.1073    44.3317 </r>
       <r>    10.4331     1.1945    44.4168 </r>
       <r>    10.5043     1.1420    44.4982 </r>
       <r>    10.5756     0.9696    44.5673 </r>
       <r>    10.6469     0.8504    44.6280 </r>
       <r>    10.7182     0.9405    44.6950 </r>
       <r>    10.7895     1.1737    44.7787 </r>
       <r>    10.8607     1.2905    44.8707 </r>
       <r>    10.9320     1.1628    44.9535 </r>
       <r>    11.0033     0.9822    45.0235 </r>
       <r>    11.0746     0.9870    45.0939 </r>
       <r>    11.1459     1.1226    45.1739 </r>
       <r>    11.2171     1.1537    45.2562 </r>
       <r>    11.2884     1.0116    45.3283 </r>
       <r>    11.3597     0.8478    45.3887 </r>
       <r>    11.4310     0.8197    45.4471 </r>
       <r>    11.5023     0.9562    45.5153 </r>
       <r>    11.5735     1.1513    45.5973 </r>
       <r>    11.6448     1.2417    45.6859 </r>
       <r>    11.7161     1.1617    45.7687 </r>
       <r>    11.7874     0.9989    45.8399 </r>
       <r>    11.8587     0.8715    45.9020 </r>
       <r>    11.9299     0.8264    45.9609 </r>
       <r>    12.0012     0.8694    46.0229 </r>
       <r>    12.0725     0.9879    46.0933 </r>
       <r>    12.1438     1.0944    46.1713 </r>
       <r>    12.2151     1.0592    46.2468 </r>
       <r>    12.2863     0.8861    46.3099 </r>
       <r>    12.3576     0.7558    46.3638 </r>
       <r>    12.4289     0.8076    46.4214 </r>
       <r>    12.5002     0.9650    46.4902 </r>
       <r>    12.5715     1.0421    46.5644 </r>
       <r>    12.6427     0.9736    46.6338 </r>
       <r>    12.7140     0.8709    46.6959 </r>
       <r>    12.7853     0.8376    46.7556 </r>
       <r>    12.8566     0.8384    46.8154 </r>
       <r>    12.9279     0.8084    46.8730 </r>
       <r>    12.9991     0.7693    46.9278 </r>
       <r>    13.0704     0.7701    46.9827 </r>
       <r>    13.1417     0.7994    47.0397 </r>
       <r>    13.2130     0.8187    47.0981 </r>
       <r>    13.2843     0.8249    47.1569 </r>
       <r>    13.3555     0.8251    47.2157 </r>
       <r>    13.4268     0.7991    47.2726 </r>
       <r>    13.4981     0.7394    47.3254 </r>
       <r>    13.5694     0.6930    47.3747 </r>
       <r>    13.6407     0.7123    47.4255 </r>
       <r>    13.7119     0.7713    47.4805 </r>
       <r>    13.7832     0.7856    47.5365 </r>
       <r>    13.8545     0.7293    47.5885 </r>
       <r>    13.9258     0.6644    47.6358 </r>
       <r>    13.9971     0.6375    47.6813 </r>
       <r>    14.0683     0.6191    47.7254 </r>
       <r>    14.1396     0.5727    47.7662 </r>
       <r>    14.2109     0.5078    47.8024 </r>
       <r>    14.2822     0.4373    47.8336 </r>
       <r>    14.3535     0.3577    47.8591 </r>
       <r>    14.4247     0.2838    47.8793 </r>
       <r>    14.4960     0.2397    47.8964 </r>
       <r>    14.5673     0.2222    47.9123 </r>
       <r>    14.6386     0.2111    47.9273 </r>
       <r>    14.7099     0.2006    47.9416 </r>
       <r>    14.7811     0.1871    47.9549 </r>
       <r>    14.8524     0.1529    47.9658 </r>
       <r>    14.9237     0.0963    47.9727 </r>
       <r>    14.9950     0.0522    47.9764 </r>
       <r>    15.0663     0.0544    47.9803 </r>
       <r>    15.1375     0.0870    47.9865 </r>
       <r>    15.2088     0.1005    47.9937 </r>
       <r>    15.2801     0.0720    47.9988 </r>
       <r>    15.3514     0.0268    48.0007 </r>
       <r>    15.4227    -0.0014    48.0006 </r>
       <r>    15.4939    -0.0067    48.0001 </r>
       <r>    15.5652    -0.0028    47.9999 </r>
       <r>    15.6365     0.0001    47.9999 </r>
       <r>    15.7078     0.0006    48.0000 </r>
       <r>    15.7791     0.0003    48.0000 </r>
       <r>    15.8503     0.0001    48.0000 </r>
       <r>    15.9216     0.0000    48.0000 </r>
       <r>    15.9929     0.0000    48.0000 </r>
       <r>    16.0642     0.0000    48.0000 </r>
       <r>    16.1355     0.0000    48.0000 </r>
       <r>    16.2067     0.0000    48.0000 </r>
       <r>    16.2780     0.0000    48.0000 </r>
       <r>    16.3493     0.0000    48.0000 </r>
       <r>    16.4206     0.0000    48.0000 </r>
       <r>    16.4919     0.0000    48.0000 </r>
       <r>    16.5631     0.0000    48.0000 </r>
       <r>    16.6344     0.0000    48.0000 </r>
       <r>    16.7057     0.0000    48.0000 </r>
       <r>    16.7770     0.0000    48.0000 </r>
       <r>    16.8483     0.0000    48.0000 </r>
       <r>    16.9195     0.0000    48.0000 </r>
       <r>    16.9908     0.0000    48.0000 </r>
       <r>    17.0621     0.0000    48.0000 </r>
       <r>    17.1334     0.0000    48.0000 </r>
       <r>    17.2047     0.0000    48.0000 </r>
      </set>
     </set>
    </array>
   </total>
  </dos>
 </calculation>
 <structure name="finalpos" >
  <crystal>
   <varray name="basis" >
    <v>       3.91000000       0.00000000       0.00000000 </v>
    <v>       0.00000000       3.91000000       0.00000000 </v>
    <v>       0.00000000       0.00000000       3.91000000 </v>
   </varray>
   <i name="volume">     59.77647100 </i>
   <varray name="rec_basis" >
    <v>       0.25575448       0.00000000       0.00000000 </v>
    <v>       0.00000000       0.25575448       0.00000000 </v>
    <v>       0.00000000       0.00000000       0.25575448 </v>
   </varray>
  </crystal>
  <varray name="positions" >
   <v>       0.00000000       0.00000000       0.00000000 </v>
   <v>       0.00000000       0.50000000       0.50000000 </v>
   <v>       0.50000000       0.00000000       0.50000000 </v>
   <v>       0.50000000       0.50000000       0.00000000 </v>
  </varray>
 </structure>
</modeling>
