This job started on
Tue Jan 22 15:10:19 CET 2019
 running on   16 total cores
 distrk:  each k-point on   16 cores,    1 groups
 distr:  one band on    8 cores,    2 groups
 using from now: INCAR     
 vasp.5.4.4.18Apr17-6-g9f103f2a35 (build Apr 17 2018 18:25:23) complex          
  
 POSCAR found :  1 types and       4 ions

 ----------------------------------------------------------------------------- 
|                                                                             |
|  ADVICE TO THIS USER RUNNING 'VASP/VAMP'   (HEAR YOUR MASTER'S VOICE ...):  |
|                                                                             |
|      You enforced a specific xc-type in the INCAR file,                     |
|      a different type was found on the POTCAR file                          |
|          I HOPE YOU KNOW, WHAT YOU ARE  DOING                               |
|                                                                             |
 ----------------------------------------------------------------------------- 

 LDA part: xc-table for Ceperly-Alder, standard interpolation
 POSCAR found :  1 types and       4 ions
 POSCAR, INCAR and KPOINTS ok, starting setup
 FFT: planning ...
 WAVECAR not read
 entering main loop
       N       E                     dE             d eps       ncg     rms          rms(c)
DAV:   1     0.411789092598E+03    0.41179E+03   -0.16939E+04 10584   0.146E+03
DAV:   2     0.634703270990E+01   -0.40544E+03   -0.39216E+03 10608   0.498E+02
DAV:   3    -0.240997020161E+02   -0.30447E+02   -0.29394E+02 14792   0.114E+02
DAV:   4    -0.251451404092E+02   -0.10454E+01   -0.10349E+01 11256   0.307E+01
DAV:   5    -0.251808015464E+02   -0.35661E-01   -0.35640E-01 13640   0.347E+00    0.760E+00
DAV:   6    -0.235231046639E+02    0.16577E+01   -0.52121E+00 13816   0.240E+01    0.163E+00
DAV:   7    -0.234633503269E+02    0.59754E-01   -0.25190E-01 16176   0.442E+00    0.649E-01
DAV:   8    -0.234555571092E+02    0.77932E-02   -0.12662E-02 10912   0.139E+00    0.916E-02
DAV:   9    -0.234553239587E+02    0.23315E-03   -0.15205E-03 15272   0.406E-01    0.261E-02
DAV:  10    -0.234553346142E+02   -0.10656E-04   -0.43888E-05 12288   0.451E-02    0.375E-03
DAV:  11    -0.234553358711E+02   -0.12569E-05   -0.18090E-06  8552   0.137E-02    0.511E-04
DAV:  12    -0.234553355328E+02    0.33836E-06   -0.32088E-07  5664   0.647E-03
   1 F= -.23455336E+02 E0= -.23453361E+02  d E =-.234553E+02
 curvature:   0.00 expect dE= 0.000E+00 dE for cont linesearch  0.000E+00
 trial: gam= 0.00000 g(F)=  0.523E-60 g(S)=  0.000E+00 ort = 0.000E+00 (trialstep = 0.100E+01)
 search vector abs. value=  0.100E-09
 reached required accuracy - stopping structural energy minimisation
 writing wavefunctions
This job finished on
Tue Jan 22 15:11:00 CET 2019
