<?xml version="1.0" encoding="ISO-8859-1"?>
<modeling>
 <generator>
  <i name="program" type="string">vasp </i>
  <i name="version" type="string">5.4.4.18Apr17-6-g9f103f2a35  </i>
  <i name="subversion" type="string">(build Apr 17 2018 18:25:23) complex            parallel </i>
  <i name="platform" type="string">LinuxIFC </i>
  <i name="date" type="string">2019 01 22 </i>
  <i name="time" type="string">15:10:21 </i>
 </generator>
 <incar>
  <i type="string" name="SYSTEM"> Pt bulk calculation</i>
  <i type="int" name="ISTART">     0</i>
  <i type="string" name="PREC">normal</i>
  <i type="string" name="ALGO"> NORMAL</i>
  <i type="int" name="ICHARG">     2</i>
  <i type="int" name="INIWAV">     1</i>
  <i type="int" name="NELMIN">    10</i>
  <i type="int" name="IBRION">     2</i>
  <i name="EDIFF">      0.00000100</i>
  <i name="EDIFFG">     -0.02000000</i>
  <i type="int" name="NSW">    10</i>
  <i name="ENCUT">    450.00000000</i>
  <i name="POTIM">      0.20000000</i>
  <i type="int" name="ISMEAR">     2</i>
  <i name="SIGMA">      0.20000000</i>
  <v type="int" name="KPOINT_BSE">    -1     0     0     0</v>
  <i type="string" name="GGA"> 91</i>
 </incar>
 <structure name="primitive_cell" >
  <crystal>
   <varray name="basis" >
    <v>       2.10000000       2.10000000      -0.00000000 </v>
    <v>       2.10000000       0.00000000      -2.10000000 </v>
    <v>       0.00000000       2.10000000      -2.10000000 </v>
   </varray>
   <i name="volume">     18.52200000 </i>
   <varray name="rec_basis" >
    <v>       0.23809524       0.23809524       0.23809524 </v>
    <v>       0.23809524      -0.23809524      -0.23809524 </v>
    <v>      -0.23809524       0.23809524      -0.23809524 </v>
   </varray>
  </crystal>
  <varray name="positions" >
   <v>       0.00000000       0.00000000       0.00000000 </v>
  </varray>
 </structure>
 <varray name="primitive_index" >
  <v type="int" >        1 </v>
 </varray>
 <kpoints>
  <generation param="Monkhorst-Pack">
   <v type="int" name="divisions">      20       20       20 </v>
   <v name="usershift">      0.00000000       0.00000000       0.00000000 </v>
   <v name="genvec1">      0.05000000       0.00000000       0.00000000 </v>
   <v name="genvec2">      0.00000000       0.05000000       0.00000000 </v>
   <v name="genvec3">      0.00000000       0.00000000       0.05000000 </v>
   <v name="shift">      0.50000000       0.50000000       0.50000000 </v>
  </generation>
  <varray name="kpointlist" >
   <v>       0.02500000       0.02500000       0.02500000 </v>
   <v>       0.07500000       0.02500000       0.02500000 </v>
   <v>       0.12500000       0.02500000       0.02500000 </v>
   <v>       0.17500000       0.02500000       0.02500000 </v>
   <v>       0.22500000       0.02500000       0.02500000 </v>
   <v>       0.27500000       0.02500000       0.02500000 </v>
   <v>       0.32500000       0.02500000       0.02500000 </v>
   <v>       0.37500000       0.02500000       0.02500000 </v>
   <v>       0.42500000       0.02500000       0.02500000 </v>
   <v>       0.47500000       0.02500000       0.02500000 </v>
   <v>       0.07500000       0.07500000       0.02500000 </v>
   <v>       0.12500000       0.07500000       0.02500000 </v>
   <v>       0.17500000       0.07500000       0.02500000 </v>
   <v>       0.22500000       0.07500000       0.02500000 </v>
   <v>       0.27500000       0.07500000       0.02500000 </v>
   <v>       0.32500000       0.07500000       0.02500000 </v>
   <v>       0.37500000       0.07500000       0.02500000 </v>
   <v>       0.42500000       0.07500000       0.02500000 </v>
   <v>       0.47500000       0.07500000       0.02500000 </v>
   <v>       0.12500000       0.12500000       0.02500000 </v>
   <v>       0.17500000       0.12500000       0.02500000 </v>
   <v>       0.22500000       0.12500000       0.02500000 </v>
   <v>       0.27500000       0.12500000       0.02500000 </v>
   <v>       0.32500000       0.12500000       0.02500000 </v>
   <v>       0.37500000       0.12500000       0.02500000 </v>
   <v>       0.42500000       0.12500000       0.02500000 </v>
   <v>       0.47500000       0.12500000       0.02500000 </v>
   <v>       0.17500000       0.17500000       0.02500000 </v>
   <v>       0.22500000       0.17500000       0.02500000 </v>
   <v>       0.27500000       0.17500000       0.02500000 </v>
   <v>       0.32500000       0.17500000       0.02500000 </v>
   <v>       0.37500000       0.17500000       0.02500000 </v>
   <v>       0.42500000       0.17500000       0.02500000 </v>
   <v>       0.47500000       0.17500000       0.02500000 </v>
   <v>       0.22500000       0.22500000       0.02500000 </v>
   <v>       0.27500000       0.22500000       0.02500000 </v>
   <v>       0.32500000       0.22500000       0.02500000 </v>
   <v>       0.37500000       0.22500000       0.02500000 </v>
   <v>       0.42500000       0.22500000       0.02500000 </v>
   <v>       0.47500000       0.22500000       0.02500000 </v>
   <v>       0.27500000       0.27500000       0.02500000 </v>
   <v>       0.32500000       0.27500000       0.02500000 </v>
   <v>       0.37500000       0.27500000       0.02500000 </v>
   <v>       0.42500000       0.27500000       0.02500000 </v>
   <v>       0.47500000       0.27500000       0.02500000 </v>
   <v>       0.32500000       0.32500000       0.02500000 </v>
   <v>       0.37500000       0.32500000       0.02500000 </v>
   <v>       0.42500000       0.32500000       0.02500000 </v>
   <v>       0.47500000       0.32500000       0.02500000 </v>
   <v>       0.37500000       0.37500000       0.02500000 </v>
   <v>       0.42500000       0.37500000       0.02500000 </v>
   <v>       0.47500000       0.37500000       0.02500000 </v>
   <v>       0.42500000       0.42500000       0.02500000 </v>
   <v>       0.47500000       0.42500000       0.02500000 </v>
   <v>       0.47500000       0.47500000       0.02500000 </v>
   <v>       0.07500000       0.07500000       0.07500000 </v>
   <v>       0.12500000       0.07500000       0.07500000 </v>
   <v>       0.17500000       0.07500000       0.07500000 </v>
   <v>       0.22500000       0.07500000       0.07500000 </v>
   <v>       0.27500000       0.07500000       0.07500000 </v>
   <v>       0.32500000       0.07500000       0.07500000 </v>
   <v>       0.37500000       0.07500000       0.07500000 </v>
   <v>       0.42500000       0.07500000       0.07500000 </v>
   <v>       0.47500000       0.07500000       0.07500000 </v>
   <v>       0.12500000       0.12500000       0.07500000 </v>
   <v>       0.17500000       0.12500000       0.07500000 </v>
   <v>       0.22500000       0.12500000       0.07500000 </v>
   <v>       0.27500000       0.12500000       0.07500000 </v>
   <v>       0.32500000       0.12500000       0.07500000 </v>
   <v>       0.37500000       0.12500000       0.07500000 </v>
   <v>       0.42500000       0.12500000       0.07500000 </v>
   <v>       0.47500000       0.12500000       0.07500000 </v>
   <v>       0.17500000       0.17500000       0.07500000 </v>
   <v>       0.22500000       0.17500000       0.07500000 </v>
   <v>       0.27500000       0.17500000       0.07500000 </v>
   <v>       0.32500000       0.17500000       0.07500000 </v>
   <v>       0.37500000       0.17500000       0.07500000 </v>
   <v>       0.42500000       0.17500000       0.07500000 </v>
   <v>       0.47500000       0.17500000       0.07500000 </v>
   <v>       0.22500000       0.22500000       0.07500000 </v>
   <v>       0.27500000       0.22500000       0.07500000 </v>
   <v>       0.32500000       0.22500000       0.07500000 </v>
   <v>       0.37500000       0.22500000       0.07500000 </v>
   <v>       0.42500000       0.22500000       0.07500000 </v>
   <v>       0.47500000       0.22500000       0.07500000 </v>
   <v>       0.27500000       0.27500000       0.07500000 </v>
   <v>       0.32500000       0.27500000       0.07500000 </v>
   <v>       0.37500000       0.27500000       0.07500000 </v>
   <v>       0.42500000       0.27500000       0.07500000 </v>
   <v>       0.47500000       0.27500000       0.07500000 </v>
   <v>       0.32500000       0.32500000       0.07500000 </v>
   <v>       0.37500000       0.32500000       0.07500000 </v>
   <v>       0.42500000       0.32500000       0.07500000 </v>
   <v>       0.47500000       0.32500000       0.07500000 </v>
   <v>       0.37500000       0.37500000       0.07500000 </v>
   <v>       0.42500000       0.37500000       0.07500000 </v>
   <v>       0.47500000       0.37500000       0.07500000 </v>
   <v>       0.42500000       0.42500000       0.07500000 </v>
   <v>       0.47500000       0.42500000       0.07500000 </v>
   <v>       0.47500000       0.47500000       0.07500000 </v>
   <v>       0.12500000       0.12500000       0.12500000 </v>
   <v>       0.17500000       0.12500000       0.12500000 </v>
   <v>       0.22500000       0.12500000       0.12500000 </v>
   <v>       0.27500000       0.12500000       0.12500000 </v>
   <v>       0.32500000       0.12500000       0.12500000 </v>
   <v>       0.37500000       0.12500000       0.12500000 </v>
   <v>       0.42500000       0.12500000       0.12500000 </v>
   <v>       0.47500000       0.12500000       0.12500000 </v>
   <v>       0.17500000       0.17500000       0.12500000 </v>
   <v>       0.22500000       0.17500000       0.12500000 </v>
   <v>       0.27500000       0.17500000       0.12500000 </v>
   <v>       0.32500000       0.17500000       0.12500000 </v>
   <v>       0.37500000       0.17500000       0.12500000 </v>
   <v>       0.42500000       0.17500000       0.12500000 </v>
   <v>       0.47500000       0.17500000       0.12500000 </v>
   <v>       0.22500000       0.22500000       0.12500000 </v>
   <v>       0.27500000       0.22500000       0.12500000 </v>
   <v>       0.32500000       0.22500000       0.12500000 </v>
   <v>       0.37500000       0.22500000       0.12500000 </v>
   <v>       0.42500000       0.22500000       0.12500000 </v>
   <v>       0.47500000       0.22500000       0.12500000 </v>
   <v>       0.27500000       0.27500000       0.12500000 </v>
   <v>       0.32500000       0.27500000       0.12500000 </v>
   <v>       0.37500000       0.27500000       0.12500000 </v>
   <v>       0.42500000       0.27500000       0.12500000 </v>
   <v>       0.47500000       0.27500000       0.12500000 </v>
   <v>       0.32500000       0.32500000       0.12500000 </v>
   <v>       0.37500000       0.32500000       0.12500000 </v>
   <v>       0.42500000       0.32500000       0.12500000 </v>
   <v>       0.47500000       0.32500000       0.12500000 </v>
   <v>       0.37500000       0.37500000       0.12500000 </v>
   <v>       0.42500000       0.37500000       0.12500000 </v>
   <v>       0.47500000       0.37500000       0.12500000 </v>
   <v>       0.42500000       0.42500000       0.12500000 </v>
   <v>       0.47500000       0.42500000       0.12500000 </v>
   <v>       0.47500000       0.47500000       0.12500000 </v>
   <v>       0.17500000       0.17500000       0.17500000 </v>
   <v>       0.22500000       0.17500000       0.17500000 </v>
   <v>       0.27500000       0.17500000       0.17500000 </v>
   <v>       0.32500000       0.17500000       0.17500000 </v>
   <v>       0.37500000       0.17500000       0.17500000 </v>
   <v>       0.42500000       0.17500000       0.17500000 </v>
   <v>       0.47500000       0.17500000       0.17500000 </v>
   <v>       0.22500000       0.22500000       0.17500000 </v>
   <v>       0.27500000       0.22500000       0.17500000 </v>
   <v>       0.32500000       0.22500000       0.17500000 </v>
   <v>       0.37500000       0.22500000       0.17500000 </v>
   <v>       0.42500000       0.22500000       0.17500000 </v>
   <v>       0.47500000       0.22500000       0.17500000 </v>
   <v>       0.27500000       0.27500000       0.17500000 </v>
   <v>       0.32500000       0.27500000       0.17500000 </v>
   <v>       0.37500000       0.27500000       0.17500000 </v>
   <v>       0.42500000       0.27500000       0.17500000 </v>
   <v>       0.47500000       0.27500000       0.17500000 </v>
   <v>       0.32500000       0.32500000       0.17500000 </v>
   <v>       0.37500000       0.32500000       0.17500000 </v>
   <v>       0.42500000       0.32500000       0.17500000 </v>
   <v>       0.47500000       0.32500000       0.17500000 </v>
   <v>       0.37500000       0.37500000       0.17500000 </v>
   <v>       0.42500000       0.37500000       0.17500000 </v>
   <v>       0.47500000       0.37500000       0.17500000 </v>
   <v>       0.42500000       0.42500000       0.17500000 </v>
   <v>       0.47500000       0.42500000       0.17500000 </v>
   <v>       0.47500000       0.47500000       0.17500000 </v>
   <v>       0.22500000       0.22500000       0.22500000 </v>
   <v>       0.27500000       0.22500000       0.22500000 </v>
   <v>       0.32500000       0.22500000       0.22500000 </v>
   <v>       0.37500000       0.22500000       0.22500000 </v>
   <v>       0.42500000       0.22500000       0.22500000 </v>
   <v>       0.47500000       0.22500000       0.22500000 </v>
   <v>       0.27500000       0.27500000       0.22500000 </v>
   <v>       0.32500000       0.27500000       0.22500000 </v>
   <v>       0.37500000       0.27500000       0.22500000 </v>
   <v>       0.42500000       0.27500000       0.22500000 </v>
   <v>       0.47500000       0.27500000       0.22500000 </v>
   <v>       0.32500000       0.32500000       0.22500000 </v>
   <v>       0.37500000       0.32500000       0.22500000 </v>
   <v>       0.42500000       0.32500000       0.22500000 </v>
   <v>       0.47500000       0.32500000       0.22500000 </v>
   <v>       0.37500000       0.37500000       0.22500000 </v>
   <v>       0.42500000       0.37500000       0.22500000 </v>
   <v>       0.47500000       0.37500000       0.22500000 </v>
   <v>       0.42500000       0.42500000       0.22500000 </v>
   <v>       0.47500000       0.42500000       0.22500000 </v>
   <v>       0.47500000       0.47500000       0.22500000 </v>
   <v>       0.27500000       0.27500000       0.27500000 </v>
   <v>       0.32500000       0.27500000       0.27500000 </v>
   <v>       0.37500000       0.27500000       0.27500000 </v>
   <v>       0.42500000       0.27500000       0.27500000 </v>
   <v>       0.47500000       0.27500000       0.27500000 </v>
   <v>       0.32500000       0.32500000       0.27500000 </v>
   <v>       0.37500000       0.32500000       0.27500000 </v>
   <v>       0.42500000       0.32500000       0.27500000 </v>
   <v>       0.47500000       0.32500000       0.27500000 </v>
   <v>       0.37500000       0.37500000       0.27500000 </v>
   <v>       0.42500000       0.37500000       0.27500000 </v>
   <v>       0.47500000       0.37500000       0.27500000 </v>
   <v>       0.42500000       0.42500000       0.27500000 </v>
   <v>       0.47500000       0.42500000       0.27500000 </v>
   <v>       0.47500000       0.47500000       0.27500000 </v>
   <v>       0.32500000       0.32500000       0.32500000 </v>
   <v>       0.37500000       0.32500000       0.32500000 </v>
   <v>       0.42500000       0.32500000       0.32500000 </v>
   <v>       0.47500000       0.32500000       0.32500000 </v>
   <v>       0.37500000       0.37500000       0.32500000 </v>
   <v>       0.42500000       0.37500000       0.32500000 </v>
   <v>       0.47500000       0.37500000       0.32500000 </v>
   <v>       0.42500000       0.42500000       0.32500000 </v>
   <v>       0.47500000       0.42500000       0.32500000 </v>
   <v>       0.47500000       0.47500000       0.32500000 </v>
   <v>       0.37500000       0.37500000       0.37500000 </v>
   <v>       0.42500000       0.37500000       0.37500000 </v>
   <v>       0.47500000       0.37500000       0.37500000 </v>
   <v>       0.42500000       0.42500000       0.37500000 </v>
   <v>       0.47500000       0.42500000       0.37500000 </v>
   <v>       0.47500000       0.47500000       0.37500000 </v>
   <v>       0.42500000       0.42500000       0.42500000 </v>
   <v>       0.47500000       0.42500000       0.42500000 </v>
   <v>       0.47500000       0.47500000       0.42500000 </v>
   <v>       0.47500000       0.47500000       0.47500000 </v>
  </varray>
  <varray name="weights" >
   <v>       0.00100000 </v>
   <v>       0.00300000 </v>
   <v>       0.00300000 </v>
   <v>       0.00300000 </v>
   <v>       0.00300000 </v>
   <v>       0.00300000 </v>
   <v>       0.00300000 </v>
   <v>       0.00300000 </v>
   <v>       0.00300000 </v>
   <v>       0.00300000 </v>
   <v>       0.00300000 </v>
   <v>       0.00600000 </v>
   <v>       0.00600000 </v>
   <v>       0.00600000 </v>
   <v>       0.00600000 </v>
   <v>       0.00600000 </v>
   <v>       0.00600000 </v>
   <v>       0.00600000 </v>
   <v>       0.00600000 </v>
   <v>       0.00300000 </v>
   <v>       0.00600000 </v>
   <v>       0.00600000 </v>
   <v>       0.00600000 </v>
   <v>       0.00600000 </v>
   <v>       0.00600000 </v>
   <v>       0.00600000 </v>
   <v>       0.00600000 </v>
   <v>       0.00300000 </v>
   <v>       0.00600000 </v>
   <v>       0.00600000 </v>
   <v>       0.00600000 </v>
   <v>       0.00600000 </v>
   <v>       0.00600000 </v>
   <v>       0.00600000 </v>
   <v>       0.00300000 </v>
   <v>       0.00600000 </v>
   <v>       0.00600000 </v>
   <v>       0.00600000 </v>
   <v>       0.00600000 </v>
   <v>       0.00600000 </v>
   <v>       0.00300000 </v>
   <v>       0.00600000 </v>
   <v>       0.00600000 </v>
   <v>       0.00600000 </v>
   <v>       0.00600000 </v>
   <v>       0.00300000 </v>
   <v>       0.00600000 </v>
   <v>       0.00600000 </v>
   <v>       0.00600000 </v>
   <v>       0.00300000 </v>
   <v>       0.00600000 </v>
   <v>       0.00600000 </v>
   <v>       0.00300000 </v>
   <v>       0.00600000 </v>
   <v>       0.00300000 </v>
   <v>       0.00100000 </v>
   <v>       0.00300000 </v>
   <v>       0.00300000 </v>
   <v>       0.00300000 </v>
   <v>       0.00300000 </v>
   <v>       0.00300000 </v>
   <v>       0.00300000 </v>
   <v>       0.00300000 </v>
   <v>       0.00300000 </v>
   <v>       0.00300000 </v>
   <v>       0.00600000 </v>
   <v>       0.00600000 </v>
   <v>       0.00600000 </v>
   <v>       0.00600000 </v>
   <v>       0.00600000 </v>
   <v>       0.00600000 </v>
   <v>       0.00600000 </v>
   <v>       0.00300000 </v>
   <v>       0.00600000 </v>
   <v>       0.00600000 </v>
   <v>       0.00600000 </v>
   <v>       0.00600000 </v>
   <v>       0.00600000 </v>
   <v>       0.00600000 </v>
   <v>       0.00300000 </v>
   <v>       0.00600000 </v>
   <v>       0.00600000 </v>
   <v>       0.00600000 </v>
   <v>       0.00600000 </v>
   <v>       0.00600000 </v>
   <v>       0.00300000 </v>
   <v>       0.00600000 </v>
   <v>       0.00600000 </v>
   <v>       0.00600000 </v>
   <v>       0.00600000 </v>
   <v>       0.00300000 </v>
   <v>       0.00600000 </v>
   <v>       0.00600000 </v>
   <v>       0.00600000 </v>
   <v>       0.00300000 </v>
   <v>       0.00600000 </v>
   <v>       0.00600000 </v>
   <v>       0.00300000 </v>
   <v>       0.00600000 </v>
   <v>       0.00300000 </v>
   <v>       0.00100000 </v>
   <v>       0.00300000 </v>
   <v>       0.00300000 </v>
   <v>       0.00300000 </v>
   <v>       0.00300000 </v>
   <v>       0.00300000 </v>
   <v>       0.00300000 </v>
   <v>       0.00300000 </v>
   <v>       0.00300000 </v>
   <v>       0.00600000 </v>
   <v>       0.00600000 </v>
   <v>       0.00600000 </v>
   <v>       0.00600000 </v>
   <v>       0.00600000 </v>
   <v>       0.00600000 </v>
   <v>       0.00300000 </v>
   <v>       0.00600000 </v>
   <v>       0.00600000 </v>
   <v>       0.00600000 </v>
   <v>       0.00600000 </v>
   <v>       0.00600000 </v>
   <v>       0.00300000 </v>
   <v>       0.00600000 </v>
   <v>       0.00600000 </v>
   <v>       0.00600000 </v>
   <v>       0.00600000 </v>
   <v>       0.00300000 </v>
   <v>       0.00600000 </v>
   <v>       0.00600000 </v>
   <v>       0.00600000 </v>
   <v>       0.00300000 </v>
   <v>       0.00600000 </v>
   <v>       0.00600000 </v>
   <v>       0.00300000 </v>
   <v>       0.00600000 </v>
   <v>       0.00300000 </v>
   <v>       0.00100000 </v>
   <v>       0.00300000 </v>
   <v>       0.00300000 </v>
   <v>       0.00300000 </v>
   <v>       0.00300000 </v>
   <v>       0.00300000 </v>
   <v>       0.00300000 </v>
   <v>       0.00300000 </v>
   <v>       0.00600000 </v>
   <v>       0.00600000 </v>
   <v>       0.00600000 </v>
   <v>       0.00600000 </v>
   <v>       0.00600000 </v>
   <v>       0.00300000 </v>
   <v>       0.00600000 </v>
   <v>       0.00600000 </v>
   <v>       0.00600000 </v>
   <v>       0.00600000 </v>
   <v>       0.00300000 </v>
   <v>       0.00600000 </v>
   <v>       0.00600000 </v>
   <v>       0.00600000 </v>
   <v>       0.00300000 </v>
   <v>       0.00600000 </v>
   <v>       0.00600000 </v>
   <v>       0.00300000 </v>
   <v>       0.00600000 </v>
   <v>       0.00300000 </v>
   <v>       0.00100000 </v>
   <v>       0.00300000 </v>
   <v>       0.00300000 </v>
   <v>       0.00300000 </v>
   <v>       0.00300000 </v>
   <v>       0.00300000 </v>
   <v>       0.00300000 </v>
   <v>       0.00600000 </v>
   <v>       0.00600000 </v>
   <v>       0.00600000 </v>
   <v>       0.00600000 </v>
   <v>       0.00300000 </v>
   <v>       0.00600000 </v>
   <v>       0.00600000 </v>
   <v>       0.00600000 </v>
   <v>       0.00300000 </v>
   <v>       0.00600000 </v>
   <v>       0.00600000 </v>
   <v>       0.00300000 </v>
   <v>       0.00600000 </v>
   <v>       0.00300000 </v>
   <v>       0.00100000 </v>
   <v>       0.00300000 </v>
   <v>       0.00300000 </v>
   <v>       0.00300000 </v>
   <v>       0.00300000 </v>
   <v>       0.00300000 </v>
   <v>       0.00600000 </v>
   <v>       0.00600000 </v>
   <v>       0.00600000 </v>
   <v>       0.00300000 </v>
   <v>       0.00600000 </v>
   <v>       0.00600000 </v>
   <v>       0.00300000 </v>
   <v>       0.00600000 </v>
   <v>       0.00300000 </v>
   <v>       0.00100000 </v>
   <v>       0.00300000 </v>
   <v>       0.00300000 </v>
   <v>       0.00300000 </v>
   <v>       0.00300000 </v>
   <v>       0.00600000 </v>
   <v>       0.00600000 </v>
   <v>       0.00300000 </v>
   <v>       0.00600000 </v>
   <v>       0.00300000 </v>
   <v>       0.00100000 </v>
   <v>       0.00300000 </v>
   <v>       0.00300000 </v>
   <v>       0.00300000 </v>
   <v>       0.00600000 </v>
   <v>       0.00300000 </v>
   <v>       0.00100000 </v>
   <v>       0.00300000 </v>
   <v>       0.00300000 </v>
   <v>       0.00100000 </v>
  </varray>
 </kpoints>
 <parameters>
  <separator name="general" >
   <i type="string" name="SYSTEM">Pt bulk calculation</i>
   <i type="logical" name="LCOMPAT"> F  </i>
  </separator>
  <separator name="electronic" >
   <i type="string" name="PREC">normal</i>
   <i name="ENMAX">    450.00000000</i>
   <i name="ENAUG">    358.96600000</i>
   <i name="EDIFF">      0.00000100</i>
   <i type="int" name="IALGO">    38</i>
   <i type="int" name="IWAVPR">    11</i>
   <i type="int" name="NBANDS">    24</i>
   <i name="NELECT">     40.00000000</i>
   <i type="int" name="TURBO">     0</i>
   <i type="int" name="IRESTART">     0</i>
   <i type="int" name="NREBOOT">     0</i>
   <i type="int" name="NMIN">     0</i>
   <i name="EREF">      0.00000000</i>
   <separator name="electronic smearing" >
    <i type="int" name="ISMEAR">     2</i>
    <i name="SIGMA">      0.20000000</i>
    <i name="KSPACING">      0.50000000</i>
    <i type="logical" name="KGAMMA"> T  </i>
   </separator>
   <separator name="electronic projectors" >
    <i type="logical" name="LREAL"> F  </i>
    <v name="ROPT">      0.00000000</v>
    <i type="int" name="LMAXPAW">  -100</i>
    <i type="int" name="LMAXMIX">     2</i>
    <i type="logical" name="NLSPLINE"> F  </i>
   </separator>
   <separator name="electronic startup" >
    <i type="int" name="ISTART">     0</i>
    <i type="int" name="ICHARG">     2</i>
    <i type="int" name="INIWAV">     1</i>
   </separator>
   <separator name="electronic spin" >
    <i type="int" name="ISPIN">     1</i>
    <i type="logical" name="LNONCOLLINEAR"> F  </i>
    <v name="MAGMOM">      1.00000000      1.00000000      1.00000000      1.00000000</v>
    <i name="NUPDOWN">     -1.00000000</i>
    <i type="logical" name="LSORBIT"> F  </i>
    <v name="SAXIS">      0.00000000      0.00000000      1.00000000</v>
    <i type="logical" name="LSPIRAL"> F  </i>
    <v name="QSPIRAL">      0.00000000      0.00000000      0.00000000</v>
    <i type="logical" name="LZEROZ"> F  </i>
   </separator>
   <separator name="electronic exchange-correlation" >
    <i type="logical" name="LASPH"> F  </i>
    <i type="logical" name="LMETAGGA"> F  </i>
   </separator>
   <separator name="electronic convergence" >
    <i type="int" name="NELM">    60</i>
    <i type="int" name="NELMDL">    -5</i>
    <i type="int" name="NELMIN">    10</i>
    <i name="ENINI">    450.00000000</i>
    <separator name="electronic convergence detail" >
     <i type="logical" name="LDIAG"> T  </i>
     <i type="logical" name="LSUBROT"> F  </i>
     <i name="WEIMIN">      0.00100000</i>
     <i name="EBREAK">      0.00000001</i>
     <i name="DEPER">      0.30000000</i>
     <i type="int" name="NRMM">     4</i>
     <i name="TIME">      0.40000000</i>
    </separator>
   </separator>
   <separator name="electronic mixer" >
    <i name="AMIX">      0.40000000</i>
    <i name="BMIX">      1.00000000</i>
    <i name="AMIN">      0.10000000</i>
    <i name="AMIX_MAG">      1.60000000</i>
    <i name="BMIX_MAG">      1.00000000</i>
    <separator name="electronic mixer details" >
     <i type="int" name="IMIX">     4</i>
     <i type="logical" name="MIXFIRST"> F  </i>
     <i type="int" name="MAXMIX">   -45</i>
     <i name="WC">    100.00000000</i>
     <i type="int" name="INIMIX">     1</i>
     <i type="int" name="MIXPRE">     1</i>
     <i type="int" name="MREMOVE">     5</i>
    </separator>
   </separator>
   <separator name="electronic dipolcorrection" >
    <i type="logical" name="LDIPOL"> F  </i>
    <i type="logical" name="LMONO"> F  </i>
    <i type="int" name="IDIPOL">     0</i>
    <i name="EPSILON">      1.00000000</i>
    <v name="DIPOL">   -100.00000000   -100.00000000   -100.00000000</v>
    <i name="EFIELD">      0.00000000</i>
   </separator>
  </separator>
  <separator name="grids" >
   <i type="int" name="NGX">    24</i>
   <i type="int" name="NGY">    24</i>
   <i type="int" name="NGZ">    24</i>
   <i type="int" name="NGXF">    48</i>
   <i type="int" name="NGYF">    48</i>
   <i type="int" name="NGZF">    48</i>
   <i type="logical" name="ADDGRID"> F  </i>
  </separator>
  <separator name="ionic" >
   <i type="int" name="NSW">    10</i>
   <i type="int" name="IBRION">     2</i>
   <i type="int" name="MDALGO">     0</i>
   <i type="int" name="ISIF">     2</i>
   <i name="PSTRESS">      0.00000000</i>
   <i name="EDIFFG">     -0.02000000</i>
   <i type="int" name="NFREE">     1</i>
   <i name="POTIM">      0.20000000</i>
   <i name="SMASS">     -3.00000000</i>
   <i name="SCALEE">      1.00000000</i>
  </separator>
  <separator name="ionic md" >
   <i name="TEBEG">      0.00010000</i>
   <i name="TEEND">      0.00010000</i>
   <i type="int" name="NBLOCK">     1</i>
   <i type="int" name="KBLOCK">    10</i>
   <i type="int" name="NPACO">   256</i>
   <i name="APACO">     16.00000000</i>
  </separator>
  <separator name="symmetry" >
   <i type="int" name="ISYM">     2</i>
   <i name="SYMPREC">      0.00001000</i>
  </separator>
  <separator name="dos" >
   <i type="int" name="LORBIT">     0</i>
   <v name="RWIGS">     -1.00000000</v>
   <i type="int" name="NEDOS">   301</i>
   <i name="EMIN">     10.00000000</i>
   <i name="EMAX">    -10.00000000</i>
   <i name="EFERMI">      0.00000000</i>
  </separator>
  <separator name="writing" >
   <i type="int" name="NWRITE">     2</i>
   <i type="logical" name="LWAVE"> T  </i>
   <i type="logical" name="LDOWNSAMPLE"> F  </i>
   <i type="logical" name="LCHARG"> T  </i>
   <i type="logical" name="LPARD"> F  </i>
   <i type="logical" name="LVTOT"> F  </i>
   <i type="logical" name="LVHAR"> F  </i>
   <i type="logical" name="LELF"> F  </i>
   <i type="logical" name="LOPTICS"> F  </i>
   <v name="STM">      0.00000000      0.00000000      0.00000000      0.00000000      0.00000000      0.00000000      0.00000000</v>
  </separator>
  <separator name="performance" >
   <i type="int" name="NPAR">     2</i>
   <i type="int" name="NSIM">     4</i>
   <i type="int" name="NBLK">    -1</i>
   <i type="logical" name="LPLANE"> T  </i>
   <i type="logical" name="LSCALAPACK"> F  </i>
   <i type="logical" name="LSCAAWARE"> F  </i>
   <i type="logical" name="LSCALU"> F  </i>
   <i type="logical" name="LASYNC"> F  </i>
   <i type="logical" name="LORBITALREAL"> F  </i>
  </separator>
  <separator name="miscellaneous" >
   <i type="int" name="IDIOT">     3</i>
   <i type="int" name="ISPECIAL">     0</i>
   <i type="logical" name="LMUSIC"> F  </i>
   <v name="POMASS">    195.08000000</v>
   <v name="DARWINR">      0.00000000</v>
   <v name="DARWINV">      1.00000000</v>
   <i type="logical" name="LCORR"> T  </i>
  </separator>
  <i type="logical" name="GGA_COMPAT"> T  </i>
  <i type="logical" name="LBERRY"> F  </i>
  <i type="int" name="ICORELEVEL">     0</i>
  <i type="logical" name="LDAU"> F  </i>
  <i type="int" name="I_CONSTRAINED_M">     0</i>
  <separator name="electronic exchange-correlation" >
   <i type="string" name="GGA">91</i>
   <i type="int" name="VOSKOWN">     0</i>
   <i type="logical" name="LHFCALC"> F  </i>
   <i type="string" name="PRECFOCK"></i>
   <i type="logical" name="LSYMGRAD"> F  </i>
   <i type="logical" name="LHFONE"> F  </i>
   <i type="logical" name="LRHFCALC"> F  </i>
   <i type="logical" name="LTHOMAS"> F  </i>
   <i type="logical" name="LMODELHF"> F  </i>
   <i name="ENCUT4O">     -1.00000000</i>
   <i type="int" name="EXXOEP">     0</i>
   <i type="int" name="FOURORBIT">     0</i>
   <i name="AEXX">      0.00000000</i>
   <i name="HFALPHA">      0.00000000</i>
   <i name="MCALPHA">      0.00000000</i>
   <i name="ALDAX">      1.00000000</i>
   <i name="AGGAX">      1.00000000</i>
   <i name="ALDAC">      1.00000000</i>
   <i name="AGGAC">      1.00000000</i>
   <i type="int" name="NKREDX">     1</i>
   <i type="int" name="NKREDY">     1</i>
   <i type="int" name="NKREDZ">     1</i>
   <i type="logical" name="SHIFTRED"> F  </i>
   <i type="logical" name="ODDONLY"> F  </i>
   <i type="logical" name="EVENONLY"> F  </i>
   <i type="int" name="LMAXFOCK">     0</i>
   <i type="int" name="NMAXFOCKAE">     0</i>
   <i type="logical" name="LFOCKAEDFT"> F  </i>
   <i name="HFSCREEN">      0.00000000</i>
   <i name="HFSCREENC">      0.00000000</i>
   <i type="int" name="NBANDSGWLOW">     0</i>
  </separator>
  <separator name="vdW DFT" >
   <i type="logical" name="LUSE_VDW"> F  </i>
   <i name="Zab_VDW">     -0.84910000</i>
   <i name="PARAM1">      0.12340000</i>
   <i name="PARAM2">      1.00000000</i>
   <i name="PARAM3">      0.00000000</i>
  </separator>
  <separator name="model GW" >
   <i type="int" name="MODEL_GW">     0</i>
   <i name="MODEL_EPS0">     11.11320000</i>
   <i name="MODEL_ALPHA">      1.00000000</i>
  </separator>
  <separator name="linear response parameters" >
   <i type="logical" name="LEPSILON"> F  </i>
   <i type="logical" name="LRPA"> F  </i>
   <i type="logical" name="LNABLA"> F  </i>
   <i type="logical" name="LVEL"> F  </i>
   <i type="int" name="KINTER">     0</i>
   <i name="CSHIFT">      0.10000000</i>
   <i name="OMEGAMAX">     -1.00000000</i>
   <i name="DEG_THRESHOLD">      0.00200000</i>
   <i name="RTIME">     -0.10000000</i>
   <i name="WPLASMAI">      0.00000000</i>
   <v name="DFIELD">      0.00000000      0.00000000      0.00000000</v>
   <v name="WPLASMA">      0.00000000      0.00000000      0.00000000      0.00000000      0.00000000      0.00000000      0.00000000      0.00000000      0.00000000</v>
  </separator>
  <separator name="orbital magnetization" >
   <i type="logical" name="NUCIND"> F  </i>
   <v name="MAGPOS">      0.00000000      0.00000000      0.00000000</v>
   <i type="logical" name="LNICSALL"> T  </i>
   <i type="logical" name="ORBITALMAG"> F  </i>
   <i type="logical" name="LMAGBLOCH"> F  </i>
   <i type="logical" name="LCHIMAG"> F  </i>
   <i type="logical" name="LGAUGE"> T  </i>
   <i type="int" name="MAGATOM">     0</i>
   <v name="MAGDIPOL">      0.00000000      0.00000000      0.00000000</v>
   <v name="AVECCONST">      0.00000000      0.00000000      0.00000000</v>
  </separator>
  <separator name="response functions" >
   <i type="logical" name="LADDER"> F  </i>
   <i type="logical" name="LRPAFORCE"> F  </i>
   <i type="logical" name="LFXC"> F  </i>
   <i type="logical" name="LHARTREE"> T  </i>
   <i type="int" name="IBSE">     0</i>
   <v type="int" name="KPOINT">    -1     0     0     0</v>
   <i type="logical" name="LTCTE"> F  </i>
   <i type="logical" name="LTETE"> F  </i>
   <i type="logical" name="LTRIPLET"> F  </i>
   <i type="logical" name="LFXCEPS"> F  </i>
   <i type="logical" name="LFXHEG"> F  </i>
   <i type="int" name="NATURALO">     2</i>
   <i type="logical" name="L2ORDER"> F  </i>
   <i type="logical" name="LMP2LT"> F  </i>
   <i type="logical" name="LUSEW"> F  </i>
   <i name="ENCUTGW">     -2.00000000</i>
   <i name="ENCUTGWSOFT">     -2.00000000</i>
   <i name="ENCUTLF">     -1.00000000</i>
   <i type="int" name="LMAXMP2">    -1</i>
   <i name="SCISSOR">      0.00000000</i>
   <i type="int" name="NOMEGA">     0</i>
   <i type="int" name="NOMEGAR">     0</i>
   <i type="int" name="NBANDSGW">    -1</i>
   <i type="int" name="NBANDSO">    -1</i>
   <i type="int" name="NBANDSV">    -1</i>
   <i type="int" name="NELM">     1</i>
   <i type="int" name="NELMHF">     1</i>
   <i type="int" name="DIM">     3</i>
   <i type="int" name="ANTIRES">     0</i>
   <i name="OMEGAMAX">    -30.00000000</i>
   <i name="OMEGAMIN">    -30.00000000</i>
   <i name="OMEGATL">   -200.00000000</i>
   <i type="int" name="OMEGAGRID">   140</i>
   <i name="CSHIFT">     -0.10000000</i>
   <i type="logical" name="SELFENERGY"> F  </i>
   <i type="logical" name="LSPECTRAL"> F  </i>
   <i type="logical" name="LSPECTRALGW"> F  </i>
   <i type="logical" name="LSINGLES"> F  </i>
   <i type="logical" name="LFERMIGW"> F  </i>
   <i type="logical" name="ODDONLYGW"> F  </i>
   <i type="logical" name="EVENONLYGW"> F  </i>
   <i type="int" name="NKREDLFX">     1</i>
   <i type="int" name="NKREDLFY">     1</i>
   <i type="int" name="NKREDLFZ">     1</i>
   <i type="int" name="MAXMEM">  2800</i>
   <i type="int" name="TELESCOPE">     0</i>
   <i type="int" name="TAUPAR">     1</i>
   <i type="int" name="OMEGAPAR">    -1</i>
   <i name="LAMBDA">      1.00000000</i>
  </separator>
  <separator name="External order field" >
   <i name="OFIELD_KAPPA">      0.00000000</i>
   <v name="OFIELD_K">      0.00000000      0.00000000      0.00000000</v>
   <i name="OFIELD_Q6_NEAR">      0.00000000</i>
   <i name="OFIELD_Q6_FAR">      0.00000000</i>
   <i name="OFIELD_A">      0.00000000</i>
  </separator>
 </parameters>
 <atominfo>
  <atoms>       4 </atoms>
  <types>       1 </types>
  <array name="atoms" >
   <dimension dim="1">ion</dimension>
   <field type="string">element</field>
   <field type="int">atomtype</field>
   <set>
    <rc><c>Pt</c><c>   1</c></rc>
    <rc><c>Pt</c><c>   1</c></rc>
    <rc><c>Pt</c><c>   1</c></rc>
    <rc><c>Pt</c><c>   1</c></rc>
   </set>
  </array>
  <array name="atomtypes" >
   <dimension dim="1">type</dimension>
   <field type="int">atomspertype</field>
   <field type="string">element</field>
   <field>mass</field>
   <field>valence</field>
   <field type="string">pseudopotential</field>
   <set>
    <rc><c>   4</c><c>Pt</c><c>    195.08000000</c><c>     10.00000000</c><c> PAW_PBE Pt 05Jan2001                   </c></rc>
   </set>
  </array>
 </atominfo>
 <structure name="initialpos" >
  <crystal>
   <varray name="basis" >
    <v>       4.20000000       0.00000000       0.00000000 </v>
    <v>       0.00000000       4.20000000       0.00000000 </v>
    <v>       0.00000000       0.00000000       4.20000000 </v>
   </varray>
   <i name="volume">     74.08800000 </i>
   <varray name="rec_basis" >
    <v>       0.23809524       0.00000000       0.00000000 </v>
    <v>       0.00000000       0.23809524       0.00000000 </v>
    <v>       0.00000000       0.00000000       0.23809524 </v>
   </varray>
  </crystal>
  <varray name="positions" >
   <v>       0.00000000       0.00000000       0.00000000 </v>
   <v>       0.00000000       0.50000000       0.50000000 </v>
   <v>       0.50000000       0.00000000       0.50000000 </v>
   <v>       0.50000000       0.50000000       0.00000000 </v>
  </varray>
 </structure>
 <calculation>
  <scstep>
   <time name="dav">    2.28    2.28</time>
   <time name="total">    2.32    2.46</time>
   <energy>
    <i name="alphaZ">    314.21073318 </i>
    <i name="ewald">  -3143.85898843 </i>
    <i name="hartreedc">   -362.52297372 </i>
    <i name="XCdc">     11.27088644 </i>
    <i name="pawpsdc">   2293.79710215 </i>
    <i name="pawaedc">  -2181.03440391 </i>
    <i name="eentropy">      0.00051188 </i>
    <i name="bandstr">    564.38807451 </i>
    <i name="atom">   2915.53815049 </i>
    <i name="e_fr_energy">    411.78909260 </i>
    <i name="e_wo_entrp">    411.78858072 </i>
    <i name="e_0_energy">    411.78896463 </i>
   </energy>
  </scstep>
  <scstep>
   <time name="dav">    2.19    2.19</time>
   <time name="total">    2.21    2.21</time>
   <energy>
    <i name="e_fr_energy">      6.34703271 </i>
    <i name="e_wo_entrp">      6.35068809 </i>
    <i name="e_0_energy">      6.34794655 </i>
   </energy>
  </scstep>
  <scstep>
   <time name="dav">    3.00    3.00</time>
   <time name="total">    3.02    3.02</time>
   <energy>
    <i name="e_fr_energy">    -24.09970202 </i>
    <i name="e_wo_entrp">    -24.09393176 </i>
    <i name="e_0_energy">    -24.09825945 </i>
   </energy>
  </scstep>
  <scstep>
   <time name="dav">    2.36    2.36</time>
   <time name="total">    2.37    2.37</time>
   <energy>
    <i name="e_fr_energy">    -25.14514041 </i>
    <i name="e_wo_entrp">    -25.13738001 </i>
    <i name="e_0_energy">    -25.14320031 </i>
   </energy>
  </scstep>
  <scstep>
   <time name="dav">    2.79    2.79</time>
   <time name="total">    2.93    2.93</time>
   <energy>
    <i name="e_fr_energy">    -25.18080155 </i>
    <i name="e_wo_entrp">    -25.17308180 </i>
    <i name="e_0_energy">    -25.17887161 </i>
   </energy>
  </scstep>
  <scstep>
   <time name="dav">    2.72    2.72</time>
   <time name="total">    2.88    2.88</time>
   <energy>
    <i name="e_fr_energy">    -23.52310466 </i>
    <i name="e_wo_entrp">    -23.51525535 </i>
    <i name="e_0_energy">    -23.52114234 </i>
   </energy>
  </scstep>
  <scstep>
   <time name="dav">    3.10    3.10</time>
   <time name="total">    3.26    3.26</time>
   <energy>
    <i name="e_fr_energy">    -23.46335033 </i>
    <i name="e_wo_entrp">    -23.45542791 </i>
    <i name="e_0_energy">    -23.46136972 </i>
   </energy>
  </scstep>
  <scstep>
   <time name="dav">    2.18    2.18</time>
   <time name="total">    2.34    2.34</time>
   <energy>
    <i name="e_fr_energy">    -23.45555711 </i>
    <i name="e_wo_entrp">    -23.44768931 </i>
    <i name="e_0_energy">    -23.45359016 </i>
   </energy>
  </scstep>
  <scstep>
   <time name="dav">    2.88    2.88</time>
   <time name="total">    3.04    3.04</time>
   <energy>
    <i name="e_fr_energy">    -23.45532396 </i>
    <i name="e_wo_entrp">    -23.44741852 </i>
    <i name="e_0_energy">    -23.45334760 </i>
   </energy>
  </scstep>
  <scstep>
   <time name="dav">    2.38    2.38</time>
   <time name="total">    2.54    2.54</time>
   <energy>
    <i name="e_fr_energy">    -23.45533461 </i>
    <i name="e_wo_entrp">    -23.44743631 </i>
    <i name="e_0_energy">    -23.45336004 </i>
   </energy>
  </scstep>
  <scstep>
   <time name="dav">    1.86    1.86</time>
   <time name="total">    2.01    2.01</time>
   <energy>
    <i name="e_fr_energy">    -23.45533587 </i>
    <i name="e_wo_entrp">    -23.44743848 </i>
    <i name="e_0_energy">    -23.45336152 </i>
   </energy>
  </scstep>
  <scstep>
   <time name="dav">    1.40    1.40</time>
   <time name="total">    1.42    1.42</time>
   <energy>
    <i name="alphaZ">    314.21073318 </i>
    <i name="ewald">  -3143.85898843 </i>
    <i name="hartreedc">   -320.99590457 </i>
    <i name="XCdc">      9.55028706 </i>
    <i name="pawpsdc">   2284.47673503 </i>
    <i name="pawaedc">  -2178.49066505 </i>
    <i name="eentropy">     -0.00789749 </i>
    <i name="bandstr">     96.12221424 </i>
    <i name="atom">   2915.53815049 </i>
    <i name="e_fr_energy">    -23.45533553 </i>
    <i name="e_wo_entrp">    -23.44743805 </i>
    <i name="e_0_energy">    -23.45336116 </i>
   </energy>
  </scstep>
  <structure>
   <crystal>
    <varray name="basis" >
     <v>       4.20000000       0.00000000       0.00000000 </v>
     <v>       0.00000000       4.20000000       0.00000000 </v>
     <v>       0.00000000       0.00000000       4.20000000 </v>
    </varray>
    <i name="volume">     74.08800000 </i>
    <varray name="rec_basis" >
     <v>       0.23809524       0.00000000       0.00000000 </v>
     <v>       0.00000000       0.23809524       0.00000000 </v>
     <v>       0.00000000       0.00000000       0.23809524 </v>
    </varray>
   </crystal>
   <varray name="positions" >
    <v>       0.00000000       0.00000000       0.00000000 </v>
    <v>       0.00000000       0.50000000       0.50000000 </v>
    <v>       0.50000000       0.00000000       0.50000000 </v>
    <v>       0.50000000       0.50000000       0.00000000 </v>
   </varray>
  </structure>
  <varray name="forces" >
   <v>       0.00000000       0.00000000       0.00000000 </v>
   <v>       0.00000000       0.00000000       0.00000000 </v>
   <v>      -0.00000000       0.00000000      -0.00000000 </v>
   <v>       0.00000000      -0.00000000      -0.00000000 </v>
  </varray>
  <varray name="stress" >
   <v>    -245.15284281       0.00000000      -0.00000000 </v>
   <v>      -0.00000000    -245.15284281       0.00000000 </v>
   <v>      -0.00000000      -0.00000000    -245.15284281 </v>
  </varray>
  <energy>
   <i name="e_fr_energy">    -23.45533553 </i>
   <i name="e_wo_entrp">    -23.45336116 </i>
   <i name="e_0_energy">     -0.00789749 </i>
  </energy>
  <time name="totalsc">   32.55   35.35</time>
  <eigenvalues>
   <array>
    <dimension dim="1">band</dimension>
    <dimension dim="2">kpoint</dimension>
    <dimension dim="3">spin</dimension>
    <field>eigene</field>
    <field>occ</field>
    <set>
     <set comment="spin 1">
      <set comment="kpoint 1">
       <r>   -3.0529    1.0000 </r>
       <r>   -0.0824    1.0000 </r>
       <r>   -0.0824    1.0000 </r>
       <r>   -0.0824    1.0000 </r>
       <r>    0.2518    1.0000 </r>
       <r>    0.2518    1.0000 </r>
       <r>    0.2518    1.0000 </r>
       <r>    2.2856    1.0000 </r>
       <r>    2.3010    1.0000 </r>
       <r>    2.3010    1.0000 </r>
       <r>    3.8320    1.0000 </r>
       <r>    3.8320    1.0000 </r>
       <r>    4.9780    0.6249 </r>
       <r>    4.9780    0.6249 </r>
       <r>    4.9780    0.6249 </r>
       <r>    5.2507   -0.0336 </r>
       <r>    5.2507   -0.0336 </r>
       <r>    5.2507   -0.0336 </r>
       <r>    5.3167   -0.0060 </r>
       <r>    5.3167   -0.0060 </r>
       <r>    5.3167   -0.0060 </r>
       <r>    7.2742    0.0000 </r>
       <r>    7.2742    0.0000 </r>
       <r>    7.2742    0.0000 </r>
      </set>
      <set comment="kpoint 2">
       <r>   -2.9974    1.0000 </r>
       <r>   -0.0657    1.0000 </r>
       <r>   -0.0440    1.0000 </r>
       <r>   -0.0440    1.0000 </r>
       <r>    0.2728    1.0000 </r>
       <r>    0.2830    1.0000 </r>
       <r>    0.2830    1.0000 </r>
       <r>    2.2574    1.0000 </r>
       <r>    2.3244    1.0000 </r>
       <r>    2.3264    1.0000 </r>
       <r>    3.7991    1.0000 </r>
       <r>    3.8453    1.0000 </r>
       <r>    4.9244    0.8656 </r>
       <r>    4.9244    0.8656 </r>
       <r>    4.9589    0.7193 </r>
       <r>    5.0085    0.4649 </r>
       <r>    5.0085    0.4649 </r>
       <r>    5.1842   -0.0508 </r>
       <r>    5.2619   -0.0282 </r>
       <r>    5.3135   -0.0070 </r>
       <r>    5.3135   -0.0070 </r>
       <r>    6.9057    0.0000 </r>
       <r>    7.5605    0.0000 </r>
       <r>    7.5605    0.0000 </r>
      </set>
      <set comment="kpoint 3">
       <r>   -2.8871    1.0000 </r>
       <r>   -0.0350    1.0000 </r>
       <r>    0.0316    1.0000 </r>
       <r>    0.0316    1.0000 </r>
       <r>    0.3145    1.0000 </r>
       <r>    0.3454    1.0000 </r>
       <r>    0.3454    1.0000 </r>
       <r>    2.1979    1.0000 </r>
       <r>    2.3753    1.0000 </r>
       <r>    2.3772    1.0000 </r>
       <r>    3.7348    1.0000 </r>
       <r>    3.8716    1.0000 </r>
       <r>    4.6217    0.9956 </r>
       <r>    4.6217    0.9956 </r>
       <r>    4.8412    1.0417 </r>
       <r>    4.8412    1.0417 </r>
       <r>    4.9186    0.8864 </r>
       <r>    5.0519    0.2479 </r>
       <r>    5.1596   -0.0395 </r>
       <r>    5.3132   -0.0071 </r>
       <r>    5.3132   -0.0071 </r>
       <r>    6.3305    0.0000 </r>
       <r>    8.0063    0.0000 </r>
       <r>    8.0063    0.0000 </r>
      </set>
      <set comment="kpoint 4">
       <r>   -2.7234    1.0000 </r>
       <r>    0.0034    1.0000 </r>
       <r>    0.1412    1.0000 </r>
       <r>    0.1412    1.0000 </r>
       <r>    0.3764    1.0000 </r>
       <r>    0.4390    1.0000 </r>
       <r>    0.4390    1.0000 </r>
       <r>    2.1114    1.0000 </r>
       <r>    2.4516    1.0000 </r>
       <r>    2.4529    1.0000 </r>
       <r>    3.6424    1.0000 </r>
       <r>    3.9106    1.0000 </r>
       <r>    4.2057    1.0000 </r>
       <r>    4.2057    1.0000 </r>
       <r>    4.7024    1.0111 </r>
       <r>    4.7024    1.0111 </r>
       <r>    4.8475    1.0368 </r>
       <r>    4.8479    1.0364 </r>
       <r>    5.0282    0.3624 </r>
       <r>    5.3132   -0.0071 </r>
       <r>    5.3132   -0.0071 </r>
       <r>    5.7011    0.0000 </r>
       <r>    8.5260    0.0000 </r>
       <r>    8.5260    0.0000 </r>
      </set>
      <set comment="kpoint 5">
       <r>   -2.5086    1.0000 </r>
       <r>    0.0390    1.0000 </r>
       <r>    0.2803    1.0000 </r>
       <r>    0.2803    1.0000 </r>
       <r>    0.4576    1.0000 </r>
       <r>    0.5633    1.0000 </r>
       <r>    0.5633    1.0000 </r>
       <r>    2.0016    1.0000 </r>
       <r>    2.5522    1.0000 </r>
       <r>    2.5531    1.0000 </r>
       <r>    3.5269    1.0000 </r>
       <r>    3.7825    1.0000 </r>
       <r>    3.7825    1.0000 </r>
       <r>    3.9613    1.0000 </r>
       <r>    4.5277    0.9970 </r>
       <r>    4.5277    0.9970 </r>
       <r>    4.5403    0.9966 </r>
       <r>    4.7189    1.0177 </r>
       <r>    4.9060    0.9268 </r>
       <r>    5.1396   -0.0178 </r>
       <r>    5.3133   -0.0071 </r>
       <r>    5.3133   -0.0071 </r>
       <r>    9.0806    0.0000 </r>
       <r>    9.0806    0.0000 </r>
      </set>
      <set comment="kpoint 6">
       <r>   -2.2462    1.0000 </r>
       <r>    0.0551    1.0000 </r>
       <r>    0.4415    1.0000 </r>
       <r>    0.4415    1.0000 </r>
       <r>    0.5567    1.0000 </r>
       <r>    0.7178    1.0000 </r>
       <r>    0.7178    1.0000 </r>
       <r>    1.8725    1.0000 </r>
       <r>    2.6755    1.0000 </r>
       <r>    2.6771    1.0000 </r>
       <r>    3.3684    1.0000 </r>
       <r>    3.3684    1.0000 </r>
       <r>    3.3958    1.0000 </r>
       <r>    4.0228    1.0000 </r>
       <r>    4.1020    1.0000 </r>
       <r>    4.3266    1.0000 </r>
       <r>    4.3266    1.0000 </r>
       <r>    4.5282    0.9970 </r>
       <r>    4.7333    1.0242 </r>
       <r>    4.8097    1.0516 </r>
       <r>    5.3136   -0.0070 </r>
       <r>    5.3136   -0.0070 </r>
       <r>    9.6468    0.0000 </r>
       <r>    9.6468    0.0000 </r>
      </set>
      <set comment="kpoint 7">
       <r>   -1.9415    1.0000 </r>
       <r>    0.0276    1.0000 </r>
       <r>    0.6141    1.0000 </r>
       <r>    0.6141    1.0000 </r>
       <r>    0.6723    1.0000 </r>
       <r>    0.9015    1.0000 </r>
       <r>    0.9015    1.0000 </r>
       <r>    1.7286    1.0000 </r>
       <r>    2.8171    1.0000 </r>
       <r>    2.8240    1.0000 </r>
       <r>    2.9712    1.0000 </r>
       <r>    2.9712    1.0000 </r>
       <r>    3.2619    1.0000 </r>
       <r>    3.6368    1.0000 </r>
       <r>    4.0940    1.0000 </r>
       <r>    4.1141    1.0000 </r>
       <r>    4.1141    1.0000 </r>
       <r>    4.3061    1.0000 </r>
       <r>    4.4281    0.9995 </r>
       <r>    4.7205    1.0184 </r>
       <r>    5.3138   -0.0069 </r>
       <r>    5.3138   -0.0069 </r>
       <r>   10.1938    0.0000 </r>
       <r>   10.1938    0.0000 </r>
      </set>
      <set comment="kpoint 8">
       <r>   -1.6026    1.0000 </r>
       <r>   -0.0717    1.0000 </r>
       <r>    0.7816    1.0000 </r>
       <r>    0.7816    1.0000 </r>
       <r>    0.8024    1.0000 </r>
       <r>    1.1133    1.0000 </r>
       <r>    1.1133    1.0000 </r>
       <r>    1.5747    1.0000 </r>
       <r>    2.5956    1.0000 </r>
       <r>    2.5956    1.0000 </r>
       <r>    2.9507    1.0000 </r>
       <r>    2.9923    1.0000 </r>
       <r>    3.1623    1.0000 </r>
       <r>    3.2562    1.0000 </r>
       <r>    3.9120    1.0000 </r>
       <r>    3.9120    1.0000 </r>
       <r>    4.0720    1.0000 </r>
       <r>    4.1567    1.0000 </r>
       <r>    4.1733    1.0000 </r>
       <r>    4.6299    0.9961 </r>
       <r>    5.3141   -0.0068 </r>
       <r>    5.3141   -0.0068 </r>
       <r>   10.6165    0.0000 </r>
       <r>   10.6165    0.0000 </r>
      </set>
      <set comment="kpoint 9">
       <r>   -1.2421    1.0000 </r>
       <r>   -0.2627    1.0000 </r>
       <r>    0.9201    1.0000 </r>
       <r>    0.9201    1.0000 </r>
       <r>    0.9446    1.0000 </r>
       <r>    1.3532    1.0000 </r>
       <r>    1.3532    1.0000 </r>
       <r>    1.4151    1.0000 </r>
       <r>    2.2443    1.0000 </r>
       <r>    2.2443    1.0000 </r>
       <r>    2.9475    1.0000 </r>
       <r>    3.0083    1.0000 </r>
       <r>    3.1803    1.0000 </r>
       <r>    3.2407    1.0000 </r>
       <r>    3.7485    1.0000 </r>
       <r>    3.7485    1.0000 </r>
       <r>    3.8361    1.0000 </r>
       <r>    3.9009    1.0000 </r>
       <r>    4.2592    1.0000 </r>
       <r>    4.5370    0.9967 </r>
       <r>    5.3142   -0.0068 </r>
       <r>    5.3142   -0.0068 </r>
       <r>   10.7480    0.0000 </r>
       <r>   10.7480    0.0000 </r>
      </set>
      <set comment="kpoint 10">
       <r>   -0.8789    1.0000 </r>
       <r>   -0.5411    1.0000 </r>
       <r>    1.0003    1.0000 </r>
       <r>    1.0003    1.0000 </r>
       <r>    1.0964    1.0000 </r>
       <r>    1.2544    1.0000 </r>
       <r>    1.6214    1.0000 </r>
       <r>    1.6214    1.0000 </r>
       <r>    1.9197    1.0000 </r>
       <r>    1.9197    1.0000 </r>
       <r>    2.8910    1.0000 </r>
       <r>    2.8961    1.0000 </r>
       <r>    3.3858    1.0000 </r>
       <r>    3.4351    1.0000 </r>
       <r>    3.6057    1.0000 </r>
       <r>    3.6552    1.0000 </r>
       <r>    3.6552    1.0000 </r>
       <r>    3.6592    1.0000 </r>
       <r>    4.3497    0.9999 </r>
       <r>    4.4430    0.9993 </r>
       <r>    5.3143   -0.0068 </r>
       <r>    5.3143   -0.0068 </r>
       <r>   10.7554    0.0000 </r>
       <r>   10.7554    0.0000 </r>
      </set>
      <set comment="kpoint 11">
       <r>   -2.9424    1.0000 </r>
       <r>   -0.0270    1.0000 </r>
       <r>   -0.0270    1.0000 </r>
       <r>   -0.0087    1.0000 </r>
       <r>    0.3038    1.0000 </r>
       <r>    0.3038    1.0000 </r>
       <r>    0.3163    1.0000 </r>
       <r>    2.2416    1.0000 </r>
       <r>    2.3366    1.0000 </r>
       <r>    2.3496    1.0000 </r>
       <r>    3.7900    1.0000 </r>
       <r>    3.8369    1.0000 </r>
       <r>    4.8279    1.0486 </r>
       <r>    4.8565    1.0276 </r>
       <r>    4.8565    1.0276 </r>
       <r>    4.8816    0.9878 </r>
       <r>    4.9756    0.6372 </r>
       <r>    4.9756    0.6372 </r>
       <r>    5.2606   -0.0288 </r>
       <r>    5.2606   -0.0288 </r>
       <r>    5.2823   -0.0188 </r>
       <r>    7.1989    0.0000 </r>
       <r>    7.1989    0.0000 </r>
       <r>    7.8051    0.0000 </r>
      </set>
      <set comment="kpoint 12">
       <r>   -2.8329    1.0000 </r>
       <r>    0.0042    1.0000 </r>
       <r>    0.0491    1.0000 </r>
       <r>    0.0604    1.0000 </r>
       <r>    0.3450    1.0000 </r>
       <r>    0.3656    1.0000 </r>
       <r>    0.3827    1.0000 </r>
       <r>    2.1907    1.0000 </r>
       <r>    2.3802    1.0000 </r>
       <r>    2.3970    1.0000 </r>
       <r>    3.7356    1.0000 </r>
       <r>    3.8578    1.0000 </r>
       <r>    4.5066    0.9978 </r>
       <r>    4.5113    0.9976 </r>
       <r>    4.7088    1.0136 </r>
       <r>    4.7926    1.0493 </r>
       <r>    4.8517    1.0328 </r>
       <r>    4.9169    0.8921 </r>
       <r>    5.1636   -0.0424 </r>
       <r>    5.2589   -0.0297 </r>
       <r>    5.2643   -0.0271 </r>
       <r>    6.6482    0.0000 </r>
       <r>    7.6355    0.0000 </r>
       <r>    8.2087    0.0000 </r>
      </set>
      <set comment="kpoint 13">
       <r>   -2.6704    1.0000 </r>
       <r>    0.0434    1.0000 </r>
       <r>    0.1596    1.0000 </r>
       <r>    0.1610    1.0000 </r>
       <r>    0.4060    1.0000 </r>
       <r>    0.4583    1.0000 </r>
       <r>    0.4816    1.0000 </r>
       <r>    2.1087    1.0000 </r>
       <r>    2.4535    1.0000 </r>
       <r>    2.4672    1.0000 </r>
       <r>    3.6481    1.0000 </r>
       <r>    3.8986    1.0000 </r>
       <r>    4.0925    1.0000 </r>
       <r>    4.1314    1.0000 </r>
       <r>    4.4778    0.9986 </r>
       <r>    4.6625    1.0001 </r>
       <r>    4.7164    1.0166 </r>
       <r>    4.8226    1.0502 </r>
       <r>    5.0409    0.2994 </r>
       <r>    5.2564   -0.0309 </r>
       <r>    5.2573   -0.0305 </r>
       <r>    6.0611    0.0000 </r>
       <r>    8.1261    0.0000 </r>
       <r>    8.6977    0.0000 </r>
      </set>
      <set comment="kpoint 14">
       <r>   -2.4572    1.0000 </r>
       <r>    0.0799    1.0000 </r>
       <r>    0.2895    1.0000 </r>
       <r>    0.2998    1.0000 </r>
       <r>    0.4860    1.0000 </r>
       <r>    0.5815    1.0000 </r>
       <r>    0.6113    1.0000 </r>
       <r>    2.0023    1.0000 </r>
       <r>    2.5526    1.0000 </r>
       <r>    2.5588    1.0000 </r>
       <r>    3.5388    1.0000 </r>
       <r>    3.6739    1.0000 </r>
       <r>    3.7325    1.0000 </r>
       <r>    3.9535    1.0000 </r>
       <r>    4.1644    1.0000 </r>
       <r>    4.4962    0.9981 </r>
       <r>    4.5473    0.9963 </r>
       <r>    4.6775    1.0034 </r>
       <r>    4.9127    0.9059 </r>
       <r>    5.2527   -0.0326 </r>
       <r>    5.2560   -0.0311 </r>
       <r>    5.5312    0.0013 </r>
       <r>    8.6303    0.0000 </r>
       <r>    9.2302    0.0000 </r>
      </set>
      <set comment="kpoint 15">
       <r>   -2.1968    1.0000 </r>
       <r>    0.0968    1.0000 </r>
       <r>    0.4413    1.0000 </r>
       <r>    0.4627    1.0000 </r>
       <r>    0.5838    1.0000 </r>
       <r>    0.7346    1.0000 </r>
       <r>    0.7687    1.0000 </r>
       <r>    1.8763    1.0000 </r>
       <r>    2.6666    1.0000 </r>
       <r>    2.6765    1.0000 </r>
       <r>    3.2667    1.0000 </r>
       <r>    3.3354    1.0000 </r>
       <r>    3.4186    1.0000 </r>
       <r>    3.7889    1.0000 </r>
       <r>    4.0207    1.0000 </r>
       <r>    4.3032    1.0000 </r>
       <r>    4.3516    0.9999 </r>
       <r>    4.4867    0.9984 </r>
       <r>    4.7657    1.0395 </r>
       <r>    5.1177    0.0215 </r>
       <r>    5.2511   -0.0334 </r>
       <r>    5.2551   -0.0315 </r>
       <r>    9.1203    0.0000 </r>
       <r>    9.7781    0.0000 </r>
      </set>
      <set comment="kpoint 16">
       <r>   -1.8944    1.0000 </r>
       <r>    0.0698    1.0000 </r>
       <r>    0.6092    1.0000 </r>
       <r>    0.6376    1.0000 </r>
       <r>    0.6977    1.0000 </r>
       <r>    0.9163    1.0000 </r>
       <r>    0.9484    1.0000 </r>
       <r>    1.7356    1.0000 </r>
       <r>    2.7793    1.0000 </r>
       <r>    2.8219    1.0000 </r>
       <r>    2.8784    1.0000 </r>
       <r>    2.9506    1.0000 </r>
       <r>    3.3091    1.0000 </r>
       <r>    3.4073    1.0000 </r>
       <r>    4.0986    1.0000 </r>
       <r>    4.0986    1.0000 </r>
       <r>    4.1430    1.0000 </r>
       <r>    4.2695    1.0000 </r>
       <r>    4.5430    0.9965 </r>
       <r>    4.8631    1.0193 </r>
       <r>    5.2506   -0.0337 </r>
       <r>    5.2543   -0.0319 </r>
       <r>    9.5656    0.0000 </r>
       <r>   10.2937    0.0000 </r>
      </set>
      <set comment="kpoint 17">
       <r>   -1.5579    1.0000 </r>
       <r>   -0.0299    1.0000 </r>
       <r>    0.7810    1.0000 </r>
       <r>    0.8082    1.0000 </r>
       <r>    0.8258    1.0000 </r>
       <r>    1.1255    1.0000 </r>
       <r>    1.1450    1.0000 </r>
       <r>    1.5847    1.0000 </r>
       <r>    2.5138    1.0000 </r>
       <r>    2.5845    1.0000 </r>
       <r>    2.8542    1.0000 </r>
       <r>    2.9877    1.0000 </r>
       <r>    3.0886    1.0000 </r>
       <r>    3.2635    1.0000 </r>
       <r>    3.9044    1.0000 </r>
       <r>    3.9419    1.0000 </r>
       <r>    4.0410    1.0000 </r>
       <r>    4.1858    1.0000 </r>
       <r>    4.2670    1.0000 </r>
       <r>    4.7154    1.0162 </r>
       <r>    5.2506   -0.0336 </r>
       <r>    5.2536   -0.0322 </r>
       <r>    9.9296    0.0000 </r>
       <r>   10.5777    0.0000 </r>
      </set>
      <set comment="kpoint 18">
       <r>   -1.1996    1.0000 </r>
       <r>   -0.2219    1.0000 </r>
       <r>    0.9321    1.0000 </r>
       <r>    0.9499    1.0000 </r>
       <r>    0.9658    1.0000 </r>
       <r>    1.3575    1.0000 </r>
       <r>    1.3614    1.0000 </r>
       <r>    1.4282    1.0000 </r>
       <r>    2.1769    1.0000 </r>
       <r>    2.2409    1.0000 </r>
       <r>    2.8401    1.0000 </r>
       <r>    2.8808    1.0000 </r>
       <r>    3.1720    1.0000 </r>
       <r>    3.3477    1.0000 </r>
       <r>    3.7495    1.0000 </r>
       <r>    3.7754    1.0000 </r>
       <r>    3.8112    1.0000 </r>
       <r>    3.9966    1.0000 </r>
       <r>    4.2806    1.0000 </r>
       <r>    4.5971    0.9951 </r>
       <r>    5.2510   -0.0334 </r>
       <r>    5.2529   -0.0326 </r>
       <r>   10.1873    0.0000 </r>
       <r>   10.5549    0.0000 </r>
      </set>
      <set comment="kpoint 19">
       <r>   -0.8381    1.0000 </r>
       <r>   -0.5009    1.0000 </r>
       <r>    1.0254    1.0000 </r>
       <r>    1.0310    1.0000 </r>
       <r>    1.1150    1.0000 </r>
       <r>    1.2703    1.0000 </r>
       <r>    1.5926    1.0000 </r>
       <r>    1.6218    1.0000 </r>
       <r>    1.8747    1.0000 </r>
       <r>    1.9245    1.0000 </r>
       <r>    2.7917    1.0000 </r>
       <r>    2.7941    1.0000 </r>
       <r>    3.3726    1.0000 </r>
       <r>    3.5250    1.0000 </r>
       <r>    3.5868    1.0000 </r>
       <r>    3.6657    1.0000 </r>
       <r>    3.6751    1.0000 </r>
       <r>    3.7468    1.0000 </r>
       <r>    4.3814    0.9998 </r>
       <r>    4.4870    0.9984 </r>
       <r>    5.2516   -0.0332 </r>
       <r>    5.2522   -0.0329 </r>
       <r>   10.3528    0.0000 </r>
       <r>   10.4665    0.0000 </r>
      </set>
      <set comment="kpoint 20">
       <r>   -2.7251    1.0000 </r>
       <r>    0.0813    1.0000 </r>
       <r>    0.0813    1.0000 </r>
       <r>    0.1177    1.0000 </r>
       <r>    0.4057    1.0000 </r>
       <r>    0.4057    1.0000 </r>
       <r>    0.4561    1.0000 </r>
       <r>    2.1589    1.0000 </r>
       <r>    2.4070    1.0000 </r>
       <r>    2.4373    1.0000 </r>
       <r>    3.7120    1.0000 </r>
       <r>    3.8565    1.0000 </r>
       <r>    4.2862    1.0000 </r>
       <r>    4.3156    1.0000 </r>
       <r>    4.3156    1.0000 </r>
       <r>    4.7063    1.0126 </r>
       <r>    4.8324    1.0468 </r>
       <r>    4.8324    1.0468 </r>
       <r>    5.1579   -0.0381 </r>
       <r>    5.1579   -0.0381 </r>
       <r>    5.2119   -0.0491 </r>
       <r>    7.0846    0.0000 </r>
       <r>    7.0846    0.0000 </r>
       <r>    8.5613    0.0000 </r>
      </set>
      <set comment="kpoint 21">
       <r>   -2.5651    1.0000 </r>
       <r>    0.1220    1.0000 </r>
       <r>    0.1935    1.0000 </r>
       <r>    0.2027    1.0000 </r>
       <r>    0.4652    1.0000 </r>
       <r>    0.4968    1.0000 </r>
       <r>    0.5632    1.0000 </r>
       <r>    2.0927    1.0000 </r>
       <r>    2.4680    1.0000 </r>
       <r>    2.4963    1.0000 </r>
       <r>    3.6449    1.0000 </r>
       <r>    3.8906    1.0000 </r>
       <r>    3.8985    1.0000 </r>
       <r>    3.9782    1.0000 </r>
       <r>    4.0630    1.0000 </r>
       <r>    4.5861    0.9952 </r>
       <r>    4.7132    1.0153 </r>
       <r>    4.7654    1.0394 </r>
       <r>    5.0259    0.3743 </r>
       <r>    5.1520   -0.0327 </r>
       <r>    5.1769   -0.0490 </r>
       <r>    6.5024    0.0000 </r>
       <r>    7.5534    0.0000 </r>
       <r>    9.0071    0.0000 </r>
      </set>
      <set comment="kpoint 22">
       <r>   -2.3552    1.0000 </r>
       <r>    0.1605    1.0000 </r>
       <r>    0.3143    1.0000 </r>
       <r>    0.3361    1.0000 </r>
       <r>    0.5430    1.0000 </r>
       <r>    0.6177    1.0000 </r>
       <r>    0.6998    1.0000 </r>
       <r>    1.9974    1.0000 </r>
       <r>    2.5603    1.0000 </r>
       <r>    2.5710    1.0000 </r>
       <r>    3.4868    1.0000 </r>
       <r>    3.5501    1.0000 </r>
       <r>    3.6292    1.0000 </r>
       <r>    3.7597    1.0000 </r>
       <r>    3.9505    1.0000 </r>
       <r>    4.4335    0.9994 </r>
       <r>    4.5583    0.9959 </r>
       <r>    4.6394    0.9969 </r>
       <r>    4.8816    0.9879 </r>
       <r>    5.1473   -0.0277 </r>
       <r>    5.1563   -0.0368 </r>
       <r>    5.9664    0.0000 </r>
       <r>    8.0226    0.0000 </r>
       <r>    9.5048    0.0000 </r>
      </set>
      <set comment="kpoint 23">
       <r>   -2.0987    1.0000 </r>
       <r>    0.1792    1.0000 </r>
       <r>    0.4508    1.0000 </r>
       <r>    0.5023    1.0000 </r>
       <r>    0.6379    1.0000 </r>
       <r>    0.7679    1.0000 </r>
       <r>    0.8591    1.0000 </r>
       <r>    1.8802    1.0000 </r>
       <r>    2.6534    1.0000 </r>
       <r>    2.6801    1.0000 </r>
       <r>    3.0910    1.0000 </r>
       <r>    3.2670    1.0000 </r>
       <r>    3.4284    1.0000 </r>
       <r>    3.4480    1.0000 </r>
       <r>    4.0281    1.0000 </r>
       <r>    4.2554    1.0000 </r>
       <r>    4.3753    0.9998 </r>
       <r>    4.4594    0.9990 </r>
       <r>    4.7250    1.0204 </r>
       <r>    5.1438   -0.0234 </r>
       <r>    5.1447   -0.0246 </r>
       <r>    5.5172    0.0016 </r>
       <r>    8.4722    0.0000 </r>
       <r>   10.0151    0.0000 </r>
      </set>
      <set comment="kpoint 24">
       <r>   -1.8009    1.0000 </r>
       <r>    0.1530    1.0000 </r>
       <r>    0.6090    1.0000 </r>
       <r>    0.6818    1.0000 </r>
       <r>    0.7484    1.0000 </r>
       <r>    0.9459    1.0000 </r>
       <r>    1.0317    1.0000 </r>
       <r>    1.7470    1.0000 </r>
       <r>    2.7172    1.0000 </r>
       <r>    2.7261    1.0000 </r>
       <r>    2.8230    1.0000 </r>
       <r>    2.9077    1.0000 </r>
       <r>    3.1092    1.0000 </r>
       <r>    3.3673    1.0000 </r>
       <r>    4.0657    1.0000 </r>
       <r>    4.1200    1.0000 </r>
       <r>    4.1766    1.0000 </r>
       <r>    4.2474    1.0000 </r>
       <r>    4.5344    0.9968 </r>
       <r>    5.1383   -0.0160 </r>
       <r>    5.1410   -0.0198 </r>
       <r>    5.1741   -0.0480 </r>
       <r>    8.8846    0.0000 </r>
       <r>   10.3846    0.0000 </r>
      </set>
      <set comment="kpoint 25">
       <r>   -1.4693    1.0000 </r>
       <r>    0.0523    1.0000 </r>
       <r>    0.7818    1.0000 </r>
       <r>    0.8589    1.0000 </r>
       <r>    0.8724    1.0000 </r>
       <r>    1.1497    1.0000 </r>
       <r>    1.2055    1.0000 </r>
       <r>    1.6032    1.0000 </r>
       <r>    2.3702    1.0000 </r>
       <r>    2.5610    1.0000 </r>
       <r>    2.7534    1.0000 </r>
       <r>    2.8522    1.0000 </r>
       <r>    2.9868    1.0000 </r>
       <r>    3.3550    1.0000 </r>
       <r>    3.8863    1.0000 </r>
       <r>    3.9807    1.0000 </r>
       <r>    4.0225    1.0000 </r>
       <r>    4.2240    1.0000 </r>
       <r>    4.3029    1.0000 </r>
       <r>    4.9293    0.8470 </r>
       <r>    5.1352   -0.0114 </r>
       <r>    5.1387   -0.0165 </r>
       <r>    9.2446    0.0000 </r>
       <r>   10.3283    0.0000 </r>
      </set>
      <set comment="kpoint 26">
       <r>   -1.1157    1.0000 </r>
       <r>   -0.1419    1.0000 </r>
       <r>    0.9506    1.0000 </r>
       <r>    1.0078    1.0000 </r>
       <r>    1.0078    1.0000 </r>
       <r>    1.3726    1.0000 </r>
       <r>    1.3773    1.0000 </r>
       <r>    1.4532    1.0000 </r>
       <r>    2.0568    1.0000 </r>
       <r>    2.2332    1.0000 </r>
       <r>    2.6950    1.0000 </r>
       <r>    2.7192    1.0000 </r>
       <r>    3.1686    1.0000 </r>
       <r>    3.4416    1.0000 </r>
       <r>    3.7469    1.0000 </r>
       <r>    3.7963    1.0000 </r>
       <r>    3.8128    1.0000 </r>
       <r>    4.0543    1.0000 </r>
       <r>    4.3383    0.9999 </r>
       <r>    4.7476    1.0310 </r>
       <r>    5.1341   -0.0096 </r>
       <r>    5.1367   -0.0137 </r>
       <r>    9.5437    0.0000 </r>
       <r>   10.1650    0.0000 </r>
      </set>
      <set comment="kpoint 27">
       <r>   -0.7578    1.0000 </r>
       <r>   -0.4220    1.0000 </r>
       <r>    1.0716    1.0000 </r>
       <r>    1.0913    1.0000 </r>
       <r>    1.1518    1.0000 </r>
       <r>    1.3015    1.0000 </r>
       <r>    1.5447    1.0000 </r>
       <r>    1.6155    1.0000 </r>
       <r>    1.8000    1.0000 </r>
       <r>    1.9314    1.0000 </r>
       <r>    2.6416    1.0000 </r>
       <r>    2.6641    1.0000 </r>
       <r>    3.3658    1.0000 </r>
       <r>    3.5760    1.0000 </r>
       <r>    3.6052    1.0000 </r>
       <r>    3.6794    1.0000 </r>
       <r>    3.7035    1.0000 </r>
       <r>    3.8157    1.0000 </r>
       <r>    4.4624    0.9989 </r>
       <r>    4.5970    0.9951 </r>
       <r>    5.1342   -0.0098 </r>
       <r>    5.1352   -0.0114 </r>
       <r>    9.7858    0.0000 </r>
       <r>    9.9865    0.0000 </r>
      </set>
      <set comment="kpoint 28">
       <r>   -2.4088    1.0000 </r>
       <r>    0.2367    1.0000 </r>
       <r>    0.2367    1.0000 </r>
       <r>    0.2686    1.0000 </r>
       <r>    0.5537    1.0000 </r>
       <r>    0.5537    1.0000 </r>
       <r>    0.6782    1.0000 </r>
       <r>    2.0500    1.0000 </r>
       <r>    2.5105    1.0000 </r>
       <r>    2.5382    1.0000 </r>
       <r>    3.6091    1.0000 </r>
       <r>    3.6498    1.0000 </r>
       <r>    3.6498    1.0000 </r>
       <r>    3.7510    1.0000 </r>
       <r>    3.9135    1.0000 </r>
       <r>    4.4780    0.9986 </r>
       <r>    4.6693    1.0015 </r>
       <r>    4.6693    1.0015 </r>
       <r>    5.0099    0.4574 </r>
       <r>    5.0099    0.4574 </r>
       <r>    5.1061    0.0496 </r>
       <r>    6.9568    0.0000 </r>
       <r>    6.9568    0.0000 </r>
       <r>    9.4104    0.0000 </r>
      </set>
      <set comment="kpoint 29">
       <r>   -2.2037    1.0000 </r>
       <r>    0.2780    1.0000 </r>
       <r>    0.3603    1.0000 </r>
       <r>    0.3828    1.0000 </r>
       <r>    0.6282    1.0000 </r>
       <r>    0.6714    1.0000 </r>
       <r>    0.8194    1.0000 </r>
       <r>    1.9763    1.0000 </r>
       <r>    2.5870    1.0000 </r>
       <r>    2.5900    1.0000 </r>
       <r>    3.2508    1.0000 </r>
       <r>    3.3661    1.0000 </r>
       <r>    3.4701    1.0000 </r>
       <r>    3.5393    1.0000 </r>
       <r>    3.9754    1.0000 </r>
       <r>    4.3417    0.9999 </r>
       <r>    4.5353    0.9967 </r>
       <r>    4.5706    0.9955 </r>
       <r>    4.8477    1.0366 </r>
       <r>    4.9981    0.5198 </r>
       <r>    5.0545    0.2358 </r>
       <r>    6.4029    0.0000 </r>
       <r>    7.4041    0.0000 </r>
       <r>    9.8646    0.0000 </r>
      </set>
      <set comment="kpoint 30">
       <r>   -1.9534    1.0000 </r>
       <r>    0.2995    1.0000 </r>
       <r>    0.4781    1.0000 </r>
       <r>    0.5538    1.0000 </r>
       <r>    0.7189    1.0000 </r>
       <r>    0.8174    1.0000 </r>
       <r>    0.9778    1.0000 </r>
       <r>    1.8766    1.0000 </r>
       <r>    2.6418    1.0000 </r>
       <r>    2.6962    1.0000 </r>
       <r>    2.8718    1.0000 </r>
       <r>    3.0723    1.0000 </r>
       <r>    3.1599    1.0000 </r>
       <r>    3.4585    1.0000 </r>
       <r>    4.0666    1.0000 </r>
       <r>    4.1826    1.0000 </r>
       <r>    4.3710    0.9999 </r>
       <r>    4.4142    0.9996 </r>
       <r>    4.6752    1.0029 </r>
       <r>    4.9899    0.5632 </r>
       <r>    5.0203    0.4030 </r>
       <r>    5.9235    0.0000 </r>
       <r>    7.8316    0.0000 </r>
       <r>   10.2431    0.0000 </r>
      </set>
      <set comment="kpoint 31">
       <r>   -1.6626    1.0000 </r>
       <r>    0.2744    1.0000 </r>
       <r>    0.6213    1.0000 </r>
       <r>    0.7401    1.0000 </r>
       <r>    0.8241    1.0000 </r>
       <r>    0.9900    1.0000 </r>
       <r>    1.1407    1.0000 </r>
       <r>    1.7580    1.0000 </r>
       <r>    2.5169    1.0000 </r>
       <r>    2.6764    1.0000 </r>
       <r>    2.8039    1.0000 </r>
       <r>    2.8322    1.0000 </r>
       <r>    2.8397    1.0000 </r>
       <r>    3.3996    1.0000 </r>
       <r>    4.0125    1.0000 </r>
       <r>    4.1787    1.0000 </r>
       <r>    4.1879    1.0000 </r>
       <r>    4.2163    1.0000 </r>
       <r>    4.4856    0.9984 </r>
       <r>    4.9840    0.5939 </r>
       <r>    4.9988    0.5163 </r>
       <r>    5.5322    0.0013 </r>
       <r>    8.2290    0.0000 </r>
       <r>   10.1383    0.0000 </r>
      </set>
      <set comment="kpoint 32">
       <r>   -1.3387    1.0000 </r>
       <r>    0.1718    1.0000 </r>
       <r>    0.7869    1.0000 </r>
       <r>    0.9273    1.0000 </r>
       <r>    0.9418    1.0000 </r>
       <r>    1.1859    1.0000 </r>
       <r>    1.2907    1.0000 </r>
       <r>    1.6267    1.0000 </r>
       <r>    2.1910    1.0000 </r>
       <r>    2.5230    1.0000 </r>
       <r>    2.6030    1.0000 </r>
       <r>    2.6678    1.0000 </r>
       <r>    2.9907    1.0000 </r>
       <r>    3.4015    1.0000 </r>
       <r>    3.8527    1.0000 </r>
       <r>    3.9995    1.0000 </r>
       <r>    4.0027    1.0000 </r>
       <r>    4.2726    1.0000 </r>
       <r>    4.3074    1.0000 </r>
       <r>    4.9797    0.6161 </r>
       <r>    4.9859    0.5839 </r>
       <r>    5.2250   -0.0449 </r>
       <r>    8.5881    0.0000 </r>
       <r>    9.9041    0.0000 </r>
      </set>
      <set comment="kpoint 33">
       <r>   -0.9926    1.0000 </r>
       <r>   -0.0260    1.0000 </r>
       <r>    0.9663    1.0000 </r>
       <r>    1.0699    1.0000 </r>
       <r>    1.0899    1.0000 </r>
       <r>    1.3993    1.0000 </r>
       <r>    1.4089    1.0000 </r>
       <r>    1.4879    1.0000 </r>
       <r>    1.9047    1.0000 </r>
       <r>    2.2190    1.0000 </r>
       <r>    2.4984    1.0000 </r>
       <r>    2.6114    1.0000 </r>
       <r>    3.1679    1.0000 </r>
       <r>    3.4837    1.0000 </r>
       <r>    3.7327    1.0000 </r>
       <r>    3.7794    1.0000 </r>
       <r>    3.8381    1.0000 </r>
       <r>    4.0465    1.0000 </r>
       <r>    4.4505    0.9992 </r>
       <r>    4.9768    0.6310 </r>
       <r>    4.9789    0.6202 </r>
       <r>    4.9827    0.6008 </r>
       <r>    8.9054    0.0000 </r>
       <r>    9.6694    0.0000 </r>
      </set>
      <set comment="kpoint 34">
       <r>   -0.6407    1.0000 </r>
       <r>   -0.3076    1.0000 </r>
       <r>    1.1271    1.0000 </r>
       <r>    1.1793    1.0000 </r>
       <r>    1.2057    1.0000 </r>
       <r>    1.3462    1.0000 </r>
       <r>    1.4959    1.0000 </r>
       <r>    1.5736    1.0000 </r>
       <r>    1.7359    1.0000 </r>
       <r>    1.9373    1.0000 </r>
       <r>    2.4865    1.0000 </r>
       <r>    2.5373    1.0000 </r>
       <r>    3.3601    1.0000 </r>
       <r>    3.5647    1.0000 </r>
       <r>    3.6326    1.0000 </r>
       <r>    3.6841    1.0000 </r>
       <r>    3.7226    1.0000 </r>
       <r>    3.8267    1.0000 </r>
       <r>    4.6079    0.9951 </r>
       <r>    4.7824    1.0463 </r>
       <r>    4.9753    0.6384 </r>
       <r>    4.9758    0.6362 </r>
       <r>    9.1839    0.0000 </r>
       <r>    9.4337    0.0000 </r>
      </set>
      <set comment="kpoint 35">
       <r>   -2.0053    1.0000 </r>
       <r>    0.4284    1.0000 </r>
       <r>    0.4284    1.0000 </r>
       <r>    0.4308    1.0000 </r>
       <r>    0.7414    1.0000 </r>
       <r>    0.7414    1.0000 </r>
       <r>    0.9613    1.0000 </r>
       <r>    1.9302    1.0000 </r>
       <r>    2.6131    1.0000 </r>
       <r>    2.6443    1.0000 </r>
       <r>    2.9902    1.0000 </r>
       <r>    2.9902    1.0000 </r>
       <r>    3.2604    1.0000 </r>
       <r>    3.4954    1.0000 </r>
       <r>    4.0440    1.0000 </r>
       <r>    4.2239    1.0000 </r>
       <r>    4.4631    0.9989 </r>
       <r>    4.4631    0.9989 </r>
       <r>    4.8223    1.0503 </r>
       <r>    4.8223    1.0503 </r>
       <r>    4.9671    0.6794 </r>
       <r>    6.8298    0.0000 </r>
       <r>    6.8298    0.0000 </r>
       <r>   10.1921    0.0000 </r>
      </set>
      <set comment="kpoint 36">
       <r>   -1.7632    1.0000 </r>
       <r>    0.4536    1.0000 </r>
       <r>    0.5274    1.0000 </r>
       <r>    0.6051    1.0000 </r>
       <r>    0.8264    1.0000 </r>
       <r>    0.8820    1.0000 </r>
       <r>    1.1152    1.0000 </r>
       <r>    1.8572    1.0000 </r>
       <r>    2.6339    1.0000 </r>
       <r>    2.6355    1.0000 </r>
       <r>    2.7315    1.0000 </r>
       <r>    2.7351    1.0000 </r>
       <r>    3.0130    1.0000 </r>
       <r>    3.4344    1.0000 </r>
       <r>    4.0855    1.0000 </r>
       <r>    4.1517    1.0000 </r>
       <r>    4.3218    1.0000 </r>
       <r>    4.3358    0.9999 </r>
       <r>    4.6321    0.9962 </r>
       <r>    4.8059    1.0515 </r>
       <r>    4.9006    0.9423 </r>
       <r>    6.3249    0.0000 </r>
       <r>    7.2391    0.0000 </r>
       <r>   10.0292    0.0000 </r>
      </set>
      <set comment="kpoint 37">
       <r>   -1.4821    1.0000 </r>
       <r>    0.4296    1.0000 </r>
       <r>    0.6503    1.0000 </r>
       <r>    0.7994    1.0000 </r>
       <r>    0.9244    1.0000 </r>
       <r>    1.0481    1.0000 </r>
       <r>    1.2665    1.0000 </r>
       <r>    1.7617    1.0000 </r>
       <r>    2.3048    1.0000 </r>
       <r>    2.5097    1.0000 </r>
       <r>    2.6363    1.0000 </r>
       <r>    2.7438    1.0000 </r>
       <r>    2.8570    1.0000 </r>
       <r>    3.3888    1.0000 </r>
       <r>    3.9370    1.0000 </r>
       <r>    4.1583    1.0000 </r>
       <r>    4.1617    1.0000 </r>
       <r>    4.2876    1.0000 </r>
       <r>    4.4314    0.9994 </r>
       <r>    4.7955    1.0500 </r>
       <r>    4.8536    1.0308 </r>
       <r>    5.8996    0.0000 </r>
       <r>    7.6240    0.0000 </r>
       <r>    9.7245    0.0000 </r>
      </set>
      <set comment="kpoint 38">
       <r>   -1.1689    1.0000 </r>
       <r>    0.3233    1.0000 </r>
       <r>    0.7993    1.0000 </r>
       <r>    0.9991    1.0000 </r>
       <r>    1.0333    1.0000 </r>
       <r>    1.2349    1.0000 </r>
       <r>    1.3947    1.0000 </r>
       <r>    1.6502    1.0000 </r>
       <r>    2.0022    1.0000 </r>
       <r>    2.3634    1.0000 </r>
       <r>    2.4675    1.0000 </r>
       <r>    2.6007    1.0000 </r>
       <r>    3.0046    1.0000 </r>
       <r>    3.3942    1.0000 </r>
       <r>    3.7982    1.0000 </r>
       <r>    3.9607    1.0000 </r>
       <r>    3.9880    1.0000 </r>
       <r>    4.2190    1.0000 </r>
       <r>    4.4446    0.9992 </r>
       <r>    4.7891    1.0484 </r>
       <r>    4.8224    1.0502 </r>
       <r>    5.5508    0.0009 </r>
       <r>    7.9796    0.0000 </r>
       <r>    9.4298    0.0000 </r>
      </set>
      <set comment="kpoint 39">
       <r>   -0.8336    1.0000 </r>
       <r>    0.1200    1.0000 </r>
       <r>    0.9724    1.0000 </r>
       <r>    1.1510    1.0000 </r>
       <r>    1.1841    1.0000 </r>
       <r>    1.4260    1.0000 </r>
       <r>    1.4732    1.0000 </r>
       <r>    1.5286    1.0000 </r>
       <r>    1.7445    1.0000 </r>
       <r>    2.1960    1.0000 </r>
       <r>    2.3132    1.0000 </r>
       <r>    2.5239    1.0000 </r>
       <r>    3.1720    1.0000 </r>
       <r>    3.4691    1.0000 </r>
       <r>    3.6981    1.0000 </r>
       <r>    3.7522    1.0000 </r>
       <r>    3.8317    1.0000 </r>
       <r>    4.0006    1.0000 </r>
       <r>    4.6189    0.9955 </r>
       <r>    4.7861    1.0475 </r>
       <r>    4.8028    1.0512 </r>
       <r>    5.2644   -0.0270 </r>
       <r>    8.3043    0.0000 </r>
       <r>    9.1513    0.0000 </r>
      </set>
      <set comment="kpoint 40">
       <r>   -0.4910    1.0000 </r>
       <r>   -0.1628    1.0000 </r>
       <r>    1.1617    1.0000 </r>
       <r>    1.2749    1.0000 </r>
       <r>    1.2907    1.0000 </r>
       <r>    1.4020    1.0000 </r>
       <r>    1.4701    1.0000 </r>
       <r>    1.4809    1.0000 </r>
       <r>    1.7194    1.0000 </r>
       <r>    1.9398    1.0000 </r>
       <r>    2.3459    1.0000 </r>
       <r>    2.4280    1.0000 </r>
       <r>    3.3541    1.0000 </r>
       <r>    3.5482    1.0000 </r>
       <r>    3.6070    1.0000 </r>
       <r>    3.6663    1.0000 </r>
       <r>    3.7154    1.0000 </r>
       <r>    3.7905    1.0000 </r>
       <r>    4.7867    1.0476 </r>
       <r>    4.7917    1.0491 </r>
       <r>    4.8103    1.0516 </r>
       <r>    5.0225    0.3916 </r>
       <r>    8.6015    0.0000 </r>
       <r>    8.8796    0.0000 </r>
      </set>
      <set comment="kpoint 41">
       <r>   -1.5314    1.0000 </r>
       <r>    0.6005    1.0000 </r>
       <r>    0.6352    1.0000 </r>
       <r>    0.6352    1.0000 </r>
       <r>    0.9600    1.0000 </r>
       <r>    0.9600    1.0000 </r>
       <r>    1.2605    1.0000 </r>
       <r>    1.8156    1.0000 </r>
       <r>    2.4105    1.0000 </r>
       <r>    2.4105    1.0000 </r>
       <r>    2.6256    1.0000 </r>
       <r>    2.8041    1.0000 </r>
       <r>    2.8297    1.0000 </r>
       <r>    3.3869    1.0000 </r>
       <r>    3.9683    1.0000 </r>
       <r>    4.2208    1.0000 </r>
[...]
       <r>    5.5876    0.0004 </r>
       <r>    6.0066    0.0000 </r>
       <r>    6.0066    0.0000 </r>
       <r>    6.3269    0.0000 </r>
      </set>
      <set comment="kpoint 217">
       <r>   -0.4426    1.0000 </r>
       <r>   -0.2816    1.0000 </r>
       <r>   -0.2816    1.0000 </r>
       <r>   -0.2816    1.0000 </r>
       <r>    2.1735    1.0000 </r>
       <r>    2.1735    1.0000 </r>
       <r>    2.1735    1.0000 </r>
       <r>    2.3105    1.0000 </r>
       <r>    2.3105    1.0000 </r>
       <r>    2.3863    1.0000 </r>
       <r>    2.3863    1.0000 </r>
       <r>    2.3863    1.0000 </r>
       <r>    4.0393    1.0000 </r>
       <r>    4.0393    1.0000 </r>
       <r>    4.0393    1.0000 </r>
       <r>    4.4230    0.9995 </r>
       <r>    4.8785    0.9940 </r>
       <r>    4.8785    0.9940 </r>
       <r>    5.0269    0.3690 </r>
       <r>    5.0269    0.3690 </r>
       <r>    5.0269    0.3690 </r>
       <r>    6.2984    0.0000 </r>
       <r>    6.2984    0.0000 </r>
       <r>    6.2984    0.0000 </r>
      </set>
      <set comment="kpoint 218">
       <r>   -0.4167    1.0000 </r>
       <r>   -0.3629    1.0000 </r>
       <r>   -0.3110    1.0000 </r>
       <r>   -0.3110    1.0000 </r>
       <r>    2.1922    1.0000 </r>
       <r>    2.1922    1.0000 </r>
       <r>    2.2335    1.0000 </r>
       <r>    2.2797    1.0000 </r>
       <r>    2.3095    1.0000 </r>
       <r>    2.3349    1.0000 </r>
       <r>    2.3541    1.0000 </r>
       <r>    2.3541    1.0000 </r>
       <r>    4.2208    1.0000 </r>
       <r>    4.2208    1.0000 </r>
       <r>    4.2753    1.0000 </r>
       <r>    4.4697    0.9988 </r>
       <r>    4.9658    0.6859 </r>
       <r>    5.0064    0.4762 </r>
       <r>    5.0064    0.4762 </r>
       <r>    5.0160    0.4255 </r>
       <r>    5.1783   -0.0494 </r>
       <r>    5.7229    0.0000 </r>
       <r>    6.2726    0.0000 </r>
       <r>    6.2726    0.0000 </r>
      </set>
      <set comment="kpoint 219">
       <r>   -0.4109    1.0000 </r>
       <r>   -0.3757    1.0000 </r>
       <r>   -0.3757    1.0000 </r>
       <r>   -0.3584    1.0000 </r>
       <r>    2.2258    1.0000 </r>
       <r>    2.2397    1.0000 </r>
       <r>    2.2397    1.0000 </r>
       <r>    2.2728    1.0000 </r>
       <r>    2.2906    1.0000 </r>
       <r>    2.3091    1.0000 </r>
       <r>    2.3091    1.0000 </r>
       <r>    2.3155    1.0000 </r>
       <r>    4.4478    0.9992 </r>
       <r>    4.4860    0.9984 </r>
       <r>    4.4860    0.9984 </r>
       <r>    4.6581    0.9994 </r>
       <r>    4.9452    0.7818 </r>
       <r>    4.9950    0.5360 </r>
       <r>    4.9950    0.5360 </r>
       <r>    4.9957    0.5326 </r>
       <r>    5.3792    0.0043 </r>
       <r>    5.8055    0.0000 </r>
       <r>    5.8055    0.0000 </r>
       <r>    6.0130    0.0000 </r>
      </set>
      <set comment="kpoint 220">
       <r>   -0.4242    1.0000 </r>
       <r>   -0.4066    1.0000 </r>
       <r>   -0.4066    1.0000 </r>
       <r>   -0.4066    1.0000 </r>
       <r>    2.2564    1.0000 </r>
       <r>    2.2564    1.0000 </r>
       <r>    2.2564    1.0000 </r>
       <r>    2.2723    1.0000 </r>
       <r>    2.2723    1.0000 </r>
       <r>    2.2807    1.0000 </r>
       <r>    2.2807    1.0000 </r>
       <r>    2.2807    1.0000 </r>
       <r>    4.7754    1.0436 </r>
       <r>    4.7754    1.0436 </r>
       <r>    4.7754    1.0436 </r>
       <r>    5.0019    0.5001 </r>
       <r>    5.0019    0.5001 </r>
       <r>    5.0189    0.4103 </r>
       <r>    5.0189    0.4103 </r>
       <r>    5.0189    0.4103 </r>
       <r>    5.2459   -0.0359 </r>
       <r>    5.6207    0.0002 </r>
       <r>    5.6207    0.0002 </r>
       <r>    5.6207    0.0002 </r>
      </set>
     </set>
    </set>
   </array>
  </eigenvalues>
  <separator name="orbital magnetization" >
   <v name="MAGDIPOLOUT">      0.00000000      0.00000000      0.00000000</v>
  </separator>
  <dos>
   <i name="efermi">      5.00186157 </i>
   <total>
    <array>
     <dimension dim="1">gridpoints</dimension>
     <dimension dim="2">spin</dimension>
     <field>energy</field>
     <field>total</field>
     <field>integrated</field>
     <set>
      <set comment="spin 1">
       <r>    -5.0529     0.0000     0.0000 </r>
       <r>    -4.9935     0.0000     0.0000 </r>
       <r>    -4.9342     0.0000     0.0000 </r>
       <r>    -4.8748     0.0000     0.0000 </r>
       <r>    -4.8155     0.0000     0.0000 </r>
       <r>    -4.7561     0.0000     0.0000 </r>
       <r>    -4.6967     0.0000     0.0000 </r>
       <r>    -4.6374     0.0000     0.0000 </r>
       <r>    -4.5780     0.0000     0.0000 </r>
       <r>    -4.5186     0.0000     0.0000 </r>
       <r>    -4.4593     0.0000     0.0000 </r>
       <r>    -4.3999     0.0000     0.0000 </r>
       <r>    -4.3406     0.0000     0.0000 </r>
       <r>    -4.2812     0.0000     0.0000 </r>
       <r>    -4.2218     0.0000     0.0000 </r>
       <r>    -4.1625     0.0000     0.0000 </r>
       <r>    -4.1031     0.0000     0.0000 </r>
       <r>    -4.0438     0.0000     0.0000 </r>
       <r>    -3.9844     0.0000     0.0000 </r>
       <r>    -3.9250     0.0000     0.0000 </r>
       <r>    -3.8657     0.0000     0.0000 </r>
       <r>    -3.8063     0.0000     0.0000 </r>
       <r>    -3.7470     0.0000     0.0000 </r>
       <r>    -3.6876     0.0000     0.0000 </r>
       <r>    -3.6282     0.0000     0.0000 </r>
       <r>    -3.5689     0.0001     0.0000 </r>
       <r>    -3.5095     0.0003     0.0000 </r>
       <r>    -3.4501     0.0005     0.0001 </r>
       <r>    -3.3908     0.0005     0.0001 </r>
       <r>    -3.3314    -0.0005     0.0000 </r>
       <r>    -3.2721    -0.0028    -0.0001 </r>
       <r>    -3.2127    -0.0048    -0.0004 </r>
       <r>    -3.1533    -0.0019    -0.0005 </r>
       <r>    -3.0940     0.0122     0.0002 </r>
       <r>    -3.0346     0.0402     0.0026 </r>
       <r>    -2.9753     0.0778     0.0072 </r>
       <r>    -2.9159     0.1162     0.0141 </r>
       <r>    -2.8565     0.1488     0.0229 </r>
       <r>    -2.7972     0.1748     0.0333 </r>
       <r>    -2.7378     0.1964     0.0450 </r>
       <r>    -2.6785     0.2148     0.0577 </r>
       <r>    -2.6191     0.2312     0.0714 </r>
       <r>    -2.5597     0.2492     0.0862 </r>
       <r>    -2.5004     0.2699     0.1023 </r>
       <r>    -2.4410     0.2882     0.1194 </r>
       <r>    -2.3816     0.2998     0.1372 </r>
       <r>    -2.3223     0.3105     0.1556 </r>
       <r>    -2.2629     0.3305     0.1752 </r>
       <r>    -2.2036     0.3572     0.1964 </r>
       <r>    -2.1442     0.3752     0.2187 </r>
       <r>    -2.0848     0.3788     0.2412 </r>
       <r>    -2.0255     0.3837     0.2640 </r>
       <r>    -1.9661     0.4058     0.2880 </r>
       <r>    -1.9068     0.4389     0.3141 </r>
       <r>    -1.8474     0.4643     0.3417 </r>
       <r>    -1.7880     0.4733     0.3698 </r>
       <r>    -1.7287     0.4733     0.3979 </r>
       <r>    -1.6693     0.4798     0.4263 </r>
       <r>    -1.6100     0.5063     0.4564 </r>
       <r>    -1.5506     0.5510     0.4891 </r>
       <r>    -1.4912     0.5892     0.5241 </r>
       <r>    -1.4319     0.5965     0.5595 </r>
       <r>    -1.3725     0.5837     0.5941 </r>
       <r>    -1.3132     0.5909     0.6292 </r>
       <r>    -1.2538     0.6386     0.6671 </r>
       <r>    -1.1944     0.6999     0.7087 </r>
       <r>    -1.1351     0.7352     0.7523 </r>
       <r>    -1.0757     0.7432     0.7964 </r>
       <r>    -1.0163     0.7549     0.8412 </r>
       <r>    -0.9570     0.7887     0.8881 </r>
       <r>    -0.8976     0.8371     0.9378 </r>
       <r>    -0.8383     0.8934     0.9908 </r>
       <r>    -0.7789     0.9570     1.0476 </r>
       <r>    -0.7195     1.0145     1.1078 </r>
       <r>    -0.6602     1.0547     1.1704 </r>
       <r>    -0.6008     1.1173     1.2367 </r>
       <r>    -0.5415     1.2854     1.3130 </r>
       <r>    -0.4821     1.5958     1.4078 </r>
       <r>    -0.4227     1.9765     1.5251 </r>
       <r>    -0.3634     2.3010     1.6617 </r>
       <r>    -0.3040     2.4974     1.8099 </r>
       <r>    -0.2447     2.5890     1.9636 </r>
       <r>    -0.1853     2.6558     2.1213 </r>
       <r>    -0.1259     2.7911     2.2870 </r>
       <r>    -0.0666     3.0733     2.4694 </r>
       <r>    -0.0072     3.5141     2.6780 </r>
       <r>     0.0522     4.0190     2.9166 </r>
       <r>     0.1115     4.4592     3.1813 </r>
       <r>     0.1709     4.8067     3.4666 </r>
       <r>     0.2302     5.1584     3.7728 </r>
       <r>     0.2896     5.6075     4.1057 </r>
       <r>     0.3490     6.1310     4.4696 </r>
       <r>     0.4083     6.6112     4.8621 </r>
       <r>     0.4677     6.9343     5.2737 </r>
       <r>     0.5270     7.0595     5.6928 </r>
       <r>     0.5864     7.0202     6.1095 </r>
       <r>     0.6458     6.8830     6.5181 </r>
       <r>     0.7051     6.7134     6.9166 </r>
       <r>     0.7645     6.5581     7.3059 </r>
       <r>     0.8238     6.4345     7.6878 </r>
       <r>     0.8832     6.3318     8.0637 </r>
       <r>     0.9426     6.2160     8.4327 </r>
       <r>     1.0019     6.0315     8.7907 </r>
       <r>     1.0613     5.7290     9.1308 </r>
       <r>     1.1207     5.3152     9.4463 </r>
       <r>     1.1800     4.8968     9.7370 </r>
       <r>     1.2394     4.6836    10.0150 </r>
       <r>     1.2987     4.8737    10.3043 </r>
       <r>     1.3581     5.4469    10.6276 </r>
       <r>     1.4175     6.1265    10.9913 </r>
       <r>     1.4768     6.6344    11.3851 </r>
       <r>     1.5362     6.9332    11.7967 </r>
       <r>     1.5955     7.1563    12.2215 </r>
       <r>     1.6549     7.3857    12.6599 </r>
       <r>     1.7143     7.5903    13.1105 </r>
       <r>     1.7736     7.7383    13.5698 </r>
       <r>     1.8330     7.8671    14.0368 </r>
       <r>     1.8923     8.0125    14.5125 </r>
       <r>     1.9517     8.1313    14.9952 </r>
       <r>     2.0111     8.1759    15.4805 </r>
       <r>     2.0704     8.2229    15.9686 </r>
       <r>     2.1298     8.4173    16.4683 </r>
       <r>     2.1891     8.7792    16.9894 </r>
       <r>     2.2485     9.1707    17.5338 </r>
       <r>     2.3079     9.5064    18.0981 </r>
       <r>     2.3672     9.9272    18.6874 </r>
       <r>     2.4266    10.6856    19.3217 </r>
       <r>     2.4860    11.8135    20.0230 </r>
       <r>     2.5453    12.8866    20.7879 </r>
       <r>     2.6047    13.1976    21.5714 </r>
       <r>     2.6640    12.3224    22.3028 </r>
       <r>     2.7234    10.5651    22.9300 </r>
       <r>     2.7828     8.7518    23.4495 </r>
       <r>     2.8421     7.5461    23.8974 </r>
       <r>     2.9015     7.0103    24.3136 </r>
       <r>     2.9608     6.7802    24.7160 </r>
       <r>     3.0202     6.5260    25.1034 </r>
       <r>     3.0796     6.2047    25.4718 </r>
       <r>     3.1389     5.9680    25.8260 </r>
       <r>     3.1983     5.9500    26.1792 </r>
       <r>     3.2576     6.1643    26.5451 </r>
       <r>     3.3170     6.5267    26.9326 </r>
       <r>     3.3764     6.9162    27.3431 </r>
       <r>     3.4357     7.2580    27.7740 </r>
       <r>     3.4951     7.5943    28.2248 </r>
       <r>     3.5545     8.0255    28.7012 </r>
       <r>     3.6138     8.5260    29.2073 </r>
       <r>     3.6732     8.8611    29.7333 </r>
       <r>     3.7325     8.7684    30.2538 </r>
       <r>     3.7919     8.2417    30.7430 </r>
       <r>     3.8513     7.5806    31.1930 </r>
       <r>     3.9106     7.1179    31.6156 </r>
       <r>     3.9700     6.9278    32.0268 </r>
       <r>     4.0293     6.8444    32.4331 </r>
       <r>     4.0887     6.7187    32.8319 </r>
       <r>     4.1481     6.5611    33.2214 </r>
       <r>     4.2074     6.4385    33.6036 </r>
       <r>     4.2668     6.3480    33.9804 </r>
       <r>     4.3261     6.2631    34.3522 </r>
       <r>     4.3855     6.2373    34.7224 </r>
       <r>     4.4449     6.3568    35.0998 </r>
       <r>     4.5042     6.5921    35.4911 </r>
       <r>     4.5636     6.8014    35.8948 </r>
       <r>     4.6230     6.9349    36.3065 </r>
       <r>     4.6823     7.1824    36.7328 </r>
       <r>     4.7417     7.8386    37.1982 </r>
       <r>     4.8010     9.0050    37.7327 </r>
       <r>     4.8604    10.4228    38.3514 </r>
       <r>     4.9198    11.5540    39.0373 </r>
       <r>     4.9791    11.8389    39.7400 </r>
       <r>     5.0385    11.0407    40.3954 </r>
       <r>     5.0978     9.4547    40.9567 </r>
       <r>     5.1572     7.6794    41.4125 </r>
       <r>     5.2166     6.0894    41.7740 </r>
       <r>     5.2759     4.6280    42.0487 </r>
       <r>     5.3353     3.1716    42.2370 </r>
       <r>     5.3946     1.9267    42.3514 </r>
       <r>     5.4540     1.2706    42.4268 </r>
       <r>     5.5134     1.2511    42.5010 </r>
       <r>     5.5727     1.4571    42.5875 </r>
       <r>     5.6321     1.4598    42.6742 </r>
       <r>     5.6914     1.2493    42.7484 </r>
       <r>     5.7508     1.1254    42.8152 </r>
       <r>     5.8102     1.2471    42.8892 </r>
       <r>     5.8695     1.4436    42.9749 </r>
       <r>     5.9289     1.4696    43.0621 </r>
       <r>     5.9883     1.3155    43.1402 </r>
       <r>     6.0476     1.1796    43.2102 </r>
       <r>     6.1070     1.1957    43.2812 </r>
       <r>     6.1663     1.2936    43.3580 </r>
       <r>     6.2257     1.3379    43.4374 </r>
       <r>     6.2851     1.3133    43.5154 </r>
       <r>     6.3444     1.3068    43.5930 </r>
       <r>     6.4038     1.3531    43.6733 </r>
       <r>     6.4631     1.3790    43.7551 </r>
       <r>     6.5225     1.3126    43.8331 </r>
       <r>     6.5819     1.1948    43.9040 </r>
       <r>     6.6412     1.1386    43.9716 </r>
       <r>     6.7006     1.1946    44.0425 </r>
       <r>     6.7599     1.2995    44.1196 </r>
       <r>     6.8193     1.3590    44.2003 </r>
       <r>     6.8787     1.3437    44.2801 </r>
       <r>     6.9380     1.2898    44.3566 </r>
       <r>     6.9974     1.2441    44.4305 </r>
       <r>     7.0568     1.2334    44.5037 </r>
       <r>     7.1161     1.2629    44.5787 </r>
       <r>     7.1755     1.3095    44.6564 </r>
       <r>     7.2348     1.3223    44.7349 </r>
       <r>     7.2942     1.2610    44.8097 </r>
       <r>     7.3536     1.1529    44.8782 </r>
       <r>     7.4129     1.0945    44.9432 </r>
       <r>     7.4723     1.1644    45.0123 </r>
       <r>     7.5316     1.3279    45.0911 </r>
       <r>     7.5910     1.4528    45.1773 </r>
       <r>     7.6504     1.4316    45.2623 </r>
       <r>     7.7097     1.2811    45.3384 </r>
       <r>     7.7691     1.1184    45.4048 </r>
       <r>     7.8284     1.0503    45.4671 </r>
       <r>     7.8878     1.0903    45.5318 </r>
       <r>     7.9472     1.1701    45.6013 </r>
       <r>     8.0065     1.2145    45.6734 </r>
       <r>     8.0659     1.2086    45.7451 </r>
       <r>     8.1253     1.2001    45.8164 </r>
       <r>     8.1846     1.2295    45.8893 </r>
       <r>     8.2440     1.2657    45.9645 </r>
       <r>     8.3033     1.2325    46.0376 </r>
       <r>     8.3627     1.1069    46.1033 </r>
       <r>     8.4221     0.9771    46.1613 </r>
       <r>     8.4814     0.9693    46.2189 </r>
       <r>     8.5408     1.1053    46.2845 </r>
       <r>     8.6001     1.2560    46.3590 </r>
       <r>     8.6595     1.2671    46.4343 </r>
       <r>     8.7189     1.1178    46.5006 </r>
       <r>     8.7782     0.9397    46.5564 </r>
       <r>     8.8376     0.8859    46.6090 </r>
       <r>     8.8969     0.9897    46.6677 </r>
       <r>     8.9563     1.1430    46.7356 </r>
       <r>     9.0157     1.2052    46.8071 </r>
       <r>     9.0750     1.1338    46.8744 </r>
       <r>     9.1344     1.0097    46.9344 </r>
       <r>     9.1937     0.9441    46.9904 </r>
       <r>     9.2531     0.9729    47.0482 </r>
       <r>     9.3125     1.0421    47.1100 </r>
       <r>     9.3718     1.0805    47.1742 </r>
       <r>     9.4312     1.0707    47.2377 </r>
       <r>     9.4906     1.0465    47.2998 </r>
       <r>     9.5499     1.0395    47.3615 </r>
       <r>     9.6093     1.0423    47.4234 </r>
       <r>     9.6686     1.0212    47.4840 </r>
       <r>     9.7280     0.9559    47.5408 </r>
       <r>     9.7874     0.8620    47.5919 </r>
       <r>     9.8467     0.7743    47.6379 </r>
       <r>     9.9061     0.7085    47.6800 </r>
       <r>     9.9654     0.6495    47.7185 </r>
       <r>    10.0248     0.5813    47.7530 </r>
       <r>    10.0842     0.5185    47.7838 </r>
       <r>    10.1435     0.4904    47.8129 </r>
       <r>    10.2029     0.4936    47.8422 </r>
       <r>    10.2622     0.4848    47.8710 </r>
       <r>    10.3216     0.4270    47.8963 </r>
       <r>    10.3810     0.3308    47.9160 </r>
       <r>    10.4403     0.2415    47.9303 </r>
       <r>    10.4997     0.1956    47.9419 </r>
       <r>    10.5591     0.1913    47.9533 </r>
       <r>    10.6184     0.2000    47.9651 </r>
       <r>    10.6778     0.1966    47.9768 </r>
       <r>    10.7371     0.1733    47.9871 </r>
       <r>    10.7965     0.1312    47.9949 </r>
       <r>    10.8559     0.0771    47.9995 </r>
       <r>    10.9152     0.0270    48.0011 </r>
       <r>    10.9746    -0.0028    48.0009 </r>
       <r>    11.0339    -0.0103    48.0003 </r>
       <r>    11.0933    -0.0061    47.9999 </r>
       <r>    11.1527    -0.0011    47.9999 </r>
       <r>    11.2120     0.0009    47.9999 </r>
       <r>    11.2714     0.0009    48.0000 </r>
       <r>    11.3307     0.0004    48.0000 </r>
       <r>    11.3901     0.0001    48.0000 </r>
       <r>    11.4495     0.0000    48.0000 </r>
       <r>    11.5088     0.0000    48.0000 </r>
       <r>    11.5682     0.0000    48.0000 </r>
       <r>    11.6276     0.0000    48.0000 </r>
       <r>    11.6869     0.0000    48.0000 </r>
       <r>    11.7463     0.0000    48.0000 </r>
       <r>    11.8056     0.0000    48.0000 </r>
       <r>    11.8650     0.0000    48.0000 </r>
       <r>    11.9244     0.0000    48.0000 </r>
       <r>    11.9837     0.0000    48.0000 </r>
       <r>    12.0431     0.0000    48.0000 </r>
       <r>    12.1024     0.0000    48.0000 </r>
       <r>    12.1618     0.0000    48.0000 </r>
       <r>    12.2212     0.0000    48.0000 </r>
       <r>    12.2805     0.0000    48.0000 </r>
       <r>    12.3399     0.0000    48.0000 </r>
       <r>    12.3992     0.0000    48.0000 </r>
       <r>    12.4586     0.0000    48.0000 </r>
       <r>    12.5180     0.0000    48.0000 </r>
       <r>    12.5773     0.0000    48.0000 </r>
       <r>    12.6367     0.0000    48.0000 </r>
       <r>    12.6961     0.0000    48.0000 </r>
       <r>    12.7554     0.0000    48.0000 </r>
      </set>
     </set>
    </array>
   </total>
  </dos>
 </calculation>
 <structure name="finalpos" >
  <crystal>
   <varray name="basis" >
    <v>       4.20000000       0.00000000       0.00000000 </v>
    <v>       0.00000000       4.20000000       0.00000000 </v>
    <v>       0.00000000       0.00000000       4.20000000 </v>
   </varray>
   <i name="volume">     74.08800000 </i>
   <varray name="rec_basis" >
    <v>       0.23809524       0.00000000       0.00000000 </v>
    <v>       0.00000000       0.23809524       0.00000000 </v>
    <v>       0.00000000       0.00000000       0.23809524 </v>
   </varray>
  </crystal>
  <varray name="positions" >
   <v>       0.00000000       0.00000000       0.00000000 </v>
   <v>       0.00000000       0.50000000       0.50000000 </v>
   <v>       0.50000000       0.00000000       0.50000000 </v>
   <v>       0.50000000       0.50000000       0.00000000 </v>
  </varray>
 </structure>
</modeling>
