<?xml version="1.0" encoding="ISO-8859-1"?>
<modeling>
 <generator>
  <i name="program" type="string">vasp </i>
  <i name="version" type="string">5.4.4.18Apr17-6-g9f103f2a35  </i>
  <i name="subversion" type="string">(build Apr 17 2018 18:25:23) complex            parallel </i>
  <i name="platform" type="string">LinuxIFC </i>
  <i name="date" type="string">2019 01 22 </i>
  <i name="time" type="string">15:10:19 </i>
 </generator>
 <incar>
  <i type="string" name="SYSTEM"> Pt bulk calculation</i>
  <i type="int" name="ISTART">     0</i>
  <i type="string" name="PREC">normal</i>
  <i type="string" name="ALGO"> NORMAL</i>
  <i type="int" name="ICHARG">     2</i>
  <i type="int" name="INIWAV">     1</i>
  <i type="int" name="NELMIN">    10</i>
  <i type="int" name="IBRION">     2</i>
  <i name="EDIFF">      0.00000100</i>
  <i name="EDIFFG">     -0.02000000</i>
  <i type="int" name="NSW">    10</i>
  <i name="ENCUT">    450.00000000</i>
  <i name="POTIM">      0.20000000</i>
  <i type="int" name="ISMEAR">     2</i>
  <i name="SIGMA">      0.20000000</i>
  <v type="int" name="KPOINT_BSE">    -1     0     0     0</v>
  <i type="string" name="GGA"> 91</i>
 </incar>
 <structure name="primitive_cell" >
  <crystal>
   <varray name="basis" >
    <v>       2.00000000       2.00000000       0.00000000 </v>
    <v>       2.00000000       0.00000000      -2.00000000 </v>
    <v>       0.00000000       2.00000000      -2.00000000 </v>
   </varray>
   <i name="volume">     16.00000000 </i>
   <varray name="rec_basis" >
    <v>       0.25000000       0.25000000       0.25000000 </v>
    <v>       0.25000000      -0.25000000      -0.25000000 </v>
    <v>      -0.25000000       0.25000000      -0.25000000 </v>
   </varray>
  </crystal>
  <varray name="positions" >
   <v>       0.00000000       0.00000000       0.00000000 </v>
  </varray>
 </structure>
 <varray name="primitive_index" >
  <v type="int" >        1 </v>
 </varray>
 <kpoints>
  <generation param="Monkhorst-Pack">
   <v type="int" name="divisions">      20       20       20 </v>
   <v name="usershift">      0.00000000       0.00000000       0.00000000 </v>
   <v name="genvec1">      0.05000000       0.00000000       0.00000000 </v>
   <v name="genvec2">      0.00000000       0.05000000       0.00000000 </v>
   <v name="genvec3">      0.00000000       0.00000000       0.05000000 </v>
   <v name="shift">      0.50000000       0.50000000       0.50000000 </v>
  </generation>
  <varray name="kpointlist" >
   <v>       0.02500000       0.02500000       0.02500000 </v>
   <v>       0.07500000       0.02500000       0.02500000 </v>
   <v>       0.12500000       0.02500000       0.02500000 </v>
   <v>       0.17500000       0.02500000       0.02500000 </v>
   <v>       0.22500000       0.02500000       0.02500000 </v>
   <v>       0.27500000       0.02500000       0.02500000 </v>
   <v>       0.32500000       0.02500000       0.02500000 </v>
   <v>       0.37500000       0.02500000       0.02500000 </v>
   <v>       0.42500000       0.02500000       0.02500000 </v>
   <v>       0.47500000       0.02500000       0.02500000 </v>
   <v>       0.07500000       0.07500000       0.02500000 </v>
   <v>       0.12500000       0.07500000       0.02500000 </v>
   <v>       0.17500000       0.07500000       0.02500000 </v>
   <v>       0.22500000       0.07500000       0.02500000 </v>
   <v>       0.27500000       0.07500000       0.02500000 </v>
   <v>       0.32500000       0.07500000       0.02500000 </v>
   <v>       0.37500000       0.07500000       0.02500000 </v>
   <v>       0.42500000       0.07500000       0.02500000 </v>
   <v>       0.47500000       0.07500000       0.02500000 </v>
   <v>       0.12500000       0.12500000       0.02500000 </v>
   <v>       0.17500000       0.12500000       0.02500000 </v>
   <v>       0.22500000       0.12500000       0.02500000 </v>
   <v>       0.27500000       0.12500000       0.02500000 </v>
   <v>       0.32500000       0.12500000       0.02500000 </v>
   <v>       0.37500000       0.12500000       0.02500000 </v>
   <v>       0.42500000       0.12500000       0.02500000 </v>
   <v>       0.47500000       0.12500000       0.02500000 </v>
   <v>       0.17500000       0.17500000       0.02500000 </v>
   <v>       0.22500000       0.17500000       0.02500000 </v>
   <v>       0.27500000       0.17500000       0.02500000 </v>
   <v>       0.32500000       0.17500000       0.02500000 </v>
   <v>       0.37500000       0.17500000       0.02500000 </v>
   <v>       0.42500000       0.17500000       0.02500000 </v>
   <v>       0.47500000       0.17500000       0.02500000 </v>
   <v>       0.22500000       0.22500000       0.02500000 </v>
   <v>       0.27500000       0.22500000       0.02500000 </v>
   <v>       0.32500000       0.22500000       0.02500000 </v>
   <v>       0.37500000       0.22500000       0.02500000 </v>
   <v>       0.42500000       0.22500000       0.02500000 </v>
   <v>       0.47500000       0.22500000       0.02500000 </v>
   <v>       0.27500000       0.27500000       0.02500000 </v>
   <v>       0.32500000       0.27500000       0.02500000 </v>
   <v>       0.37500000       0.27500000       0.02500000 </v>
   <v>       0.42500000       0.27500000       0.02500000 </v>
   <v>       0.47500000       0.27500000       0.02500000 </v>
   <v>       0.32500000       0.32500000       0.02500000 </v>
   <v>       0.37500000       0.32500000       0.02500000 </v>
   <v>       0.42500000       0.32500000       0.02500000 </v>
   <v>       0.47500000       0.32500000       0.02500000 </v>
   <v>       0.37500000       0.37500000       0.02500000 </v>
   <v>       0.42500000       0.37500000       0.02500000 </v>
   <v>       0.47500000       0.37500000       0.02500000 </v>
   <v>       0.42500000       0.42500000       0.02500000 </v>
   <v>       0.47500000       0.42500000       0.02500000 </v>
   <v>       0.47500000       0.47500000       0.02500000 </v>
   <v>       0.07500000       0.07500000       0.07500000 </v>
   <v>       0.12500000       0.07500000       0.07500000 </v>
   <v>       0.17500000       0.07500000       0.07500000 </v>
   <v>       0.22500000       0.07500000       0.07500000 </v>
   <v>       0.27500000       0.07500000       0.07500000 </v>
   <v>       0.32500000       0.07500000       0.07500000 </v>
   <v>       0.37500000       0.07500000       0.07500000 </v>
   <v>       0.42500000       0.07500000       0.07500000 </v>
   <v>       0.47500000       0.07500000       0.07500000 </v>
   <v>       0.12500000       0.12500000       0.07500000 </v>
   <v>       0.17500000       0.12500000       0.07500000 </v>
   <v>       0.22500000       0.12500000       0.07500000 </v>
   <v>       0.27500000       0.12500000       0.07500000 </v>
   <v>       0.32500000       0.12500000       0.07500000 </v>
   <v>       0.37500000       0.12500000       0.07500000 </v>
   <v>       0.42500000       0.12500000       0.07500000 </v>
   <v>       0.47500000       0.12500000       0.07500000 </v>
   <v>       0.17500000       0.17500000       0.07500000 </v>
   <v>       0.22500000       0.17500000       0.07500000 </v>
   <v>       0.27500000       0.17500000       0.07500000 </v>
   <v>       0.32500000       0.17500000       0.07500000 </v>
   <v>       0.37500000       0.17500000       0.07500000 </v>
   <v>       0.42500000       0.17500000       0.07500000 </v>
   <v>       0.47500000       0.17500000       0.07500000 </v>
   <v>       0.22500000       0.22500000       0.07500000 </v>
   <v>       0.27500000       0.22500000       0.07500000 </v>
   <v>       0.32500000       0.22500000       0.07500000 </v>
   <v>       0.37500000       0.22500000       0.07500000 </v>
   <v>       0.42500000       0.22500000       0.07500000 </v>
   <v>       0.47500000       0.22500000       0.07500000 </v>
   <v>       0.27500000       0.27500000       0.07500000 </v>
   <v>       0.32500000       0.27500000       0.07500000 </v>
   <v>       0.37500000       0.27500000       0.07500000 </v>
   <v>       0.42500000       0.27500000       0.07500000 </v>
   <v>       0.47500000       0.27500000       0.07500000 </v>
   <v>       0.32500000       0.32500000       0.07500000 </v>
   <v>       0.37500000       0.32500000       0.07500000 </v>
   <v>       0.42500000       0.32500000       0.07500000 </v>
   <v>       0.47500000       0.32500000       0.07500000 </v>
   <v>       0.37500000       0.37500000       0.07500000 </v>
   <v>       0.42500000       0.37500000       0.07500000 </v>
   <v>       0.47500000       0.37500000       0.07500000 </v>
   <v>       0.42500000       0.42500000       0.07500000 </v>
   <v>       0.47500000       0.42500000       0.07500000 </v>
   <v>       0.47500000       0.47500000       0.07500000 </v>
   <v>       0.12500000       0.12500000       0.12500000 </v>
   <v>       0.17500000       0.12500000       0.12500000 </v>
   <v>       0.22500000       0.12500000       0.12500000 </v>
   <v>       0.27500000       0.12500000       0.12500000 </v>
   <v>       0.32500000       0.12500000       0.12500000 </v>
   <v>       0.37500000       0.12500000       0.12500000 </v>
   <v>       0.42500000       0.12500000       0.12500000 </v>
   <v>       0.47500000       0.12500000       0.12500000 </v>
   <v>       0.17500000       0.17500000       0.12500000 </v>
   <v>       0.22500000       0.17500000       0.12500000 </v>
   <v>       0.27500000       0.17500000       0.12500000 </v>
   <v>       0.32500000       0.17500000       0.12500000 </v>
   <v>       0.37500000       0.17500000       0.12500000 </v>
   <v>       0.42500000       0.17500000       0.12500000 </v>
   <v>       0.47500000       0.17500000       0.12500000 </v>
   <v>       0.22500000       0.22500000       0.12500000 </v>
   <v>       0.27500000       0.22500000       0.12500000 </v>
   <v>       0.32500000       0.22500000       0.12500000 </v>
   <v>       0.37500000       0.22500000       0.12500000 </v>
   <v>       0.42500000       0.22500000       0.12500000 </v>
   <v>       0.47500000       0.22500000       0.12500000 </v>
   <v>       0.27500000       0.27500000       0.12500000 </v>
   <v>       0.32500000       0.27500000       0.12500000 </v>
   <v>       0.37500000       0.27500000       0.12500000 </v>
   <v>       0.42500000       0.27500000       0.12500000 </v>
   <v>       0.47500000       0.27500000       0.12500000 </v>
   <v>       0.32500000       0.32500000       0.12500000 </v>
   <v>       0.37500000       0.32500000       0.12500000 </v>
   <v>       0.42500000       0.32500000       0.12500000 </v>
   <v>       0.47500000       0.32500000       0.12500000 </v>
   <v>       0.37500000       0.37500000       0.12500000 </v>
   <v>       0.42500000       0.37500000       0.12500000 </v>
   <v>       0.47500000       0.37500000       0.12500000 </v>
   <v>       0.42500000       0.42500000       0.12500000 </v>
   <v>       0.47500000       0.42500000       0.12500000 </v>
   <v>       0.47500000       0.47500000       0.12500000 </v>
   <v>       0.17500000       0.17500000       0.17500000 </v>
   <v>       0.22500000       0.17500000       0.17500000 </v>
   <v>       0.27500000       0.17500000       0.17500000 </v>
   <v>       0.32500000       0.17500000       0.17500000 </v>
   <v>       0.37500000       0.17500000       0.17500000 </v>
   <v>       0.42500000       0.17500000       0.17500000 </v>
   <v>       0.47500000       0.17500000       0.17500000 </v>
   <v>       0.22500000       0.22500000       0.17500000 </v>
   <v>       0.27500000       0.22500000       0.17500000 </v>
   <v>       0.32500000       0.22500000       0.17500000 </v>
   <v>       0.37500000       0.22500000       0.17500000 </v>
   <v>       0.42500000       0.22500000       0.17500000 </v>
   <v>       0.47500000       0.22500000       0.17500000 </v>
   <v>       0.27500000       0.27500000       0.17500000 </v>
   <v>       0.32500000       0.27500000       0.17500000 </v>
   <v>       0.37500000       0.27500000       0.17500000 </v>
   <v>       0.42500000       0.27500000       0.17500000 </v>
   <v>       0.47500000       0.27500000       0.17500000 </v>
   <v>       0.32500000       0.32500000       0.17500000 </v>
   <v>       0.37500000       0.32500000       0.17500000 </v>
   <v>       0.42500000       0.32500000       0.17500000 </v>
   <v>       0.47500000       0.32500000       0.17500000 </v>
   <v>       0.37500000       0.37500000       0.17500000 </v>
   <v>       0.42500000       0.37500000       0.17500000 </v>
   <v>       0.47500000       0.37500000       0.17500000 </v>
   <v>       0.42500000       0.42500000       0.17500000 </v>
   <v>       0.47500000       0.42500000       0.17500000 </v>
   <v>       0.47500000       0.47500000       0.17500000 </v>
   <v>       0.22500000       0.22500000       0.22500000 </v>
   <v>       0.27500000       0.22500000       0.22500000 </v>
   <v>       0.32500000       0.22500000       0.22500000 </v>
   <v>       0.37500000       0.22500000       0.22500000 </v>
   <v>       0.42500000       0.22500000       0.22500000 </v>
   <v>       0.47500000       0.22500000       0.22500000 </v>
   <v>       0.27500000       0.27500000       0.22500000 </v>
   <v>       0.32500000       0.27500000       0.22500000 </v>
   <v>       0.37500000       0.27500000       0.22500000 </v>
   <v>       0.42500000       0.27500000       0.22500000 </v>
   <v>       0.47500000       0.27500000       0.22500000 </v>
   <v>       0.32500000       0.32500000       0.22500000 </v>
   <v>       0.37500000       0.32500000       0.22500000 </v>
   <v>       0.42500000       0.32500000       0.22500000 </v>
   <v>       0.47500000       0.32500000       0.22500000 </v>
   <v>       0.37500000       0.37500000       0.22500000 </v>
   <v>       0.42500000       0.37500000       0.22500000 </v>
   <v>       0.47500000       0.37500000       0.22500000 </v>
   <v>       0.42500000       0.42500000       0.22500000 </v>
   <v>       0.47500000       0.42500000       0.22500000 </v>
   <v>       0.47500000       0.47500000       0.22500000 </v>
   <v>       0.27500000       0.27500000       0.27500000 </v>
   <v>       0.32500000       0.27500000       0.27500000 </v>
   <v>       0.37500000       0.27500000       0.27500000 </v>
   <v>       0.42500000       0.27500000       0.27500000 </v>
   <v>       0.47500000       0.27500000       0.27500000 </v>
   <v>       0.32500000       0.32500000       0.27500000 </v>
   <v>       0.37500000       0.32500000       0.27500000 </v>
   <v>       0.42500000       0.32500000       0.27500000 </v>
   <v>       0.47500000       0.32500000       0.27500000 </v>
   <v>       0.37500000       0.37500000       0.27500000 </v>
   <v>       0.42500000       0.37500000       0.27500000 </v>
   <v>       0.47500000       0.37500000       0.27500000 </v>
   <v>       0.42500000       0.42500000       0.27500000 </v>
   <v>       0.47500000       0.42500000       0.27500000 </v>
   <v>       0.47500000       0.47500000       0.27500000 </v>
   <v>       0.32500000       0.32500000       0.32500000 </v>
   <v>       0.37500000       0.32500000       0.32500000 </v>
   <v>       0.42500000       0.32500000       0.32500000 </v>
   <v>       0.47500000       0.32500000       0.32500000 </v>
   <v>       0.37500000       0.37500000       0.32500000 </v>
   <v>       0.42500000       0.37500000       0.32500000 </v>
   <v>       0.47500000       0.37500000       0.32500000 </v>
   <v>       0.42500000       0.42500000       0.32500000 </v>
   <v>       0.47500000       0.42500000       0.32500000 </v>
   <v>       0.47500000       0.47500000       0.32500000 </v>
   <v>       0.37500000       0.37500000       0.37500000 </v>
   <v>       0.42500000       0.37500000       0.37500000 </v>
   <v>       0.47500000       0.37500000       0.37500000 </v>
   <v>       0.42500000       0.42500000       0.37500000 </v>
   <v>       0.47500000       0.42500000       0.37500000 </v>
   <v>       0.47500000       0.47500000       0.37500000 </v>
   <v>       0.42500000       0.42500000       0.42500000 </v>
   <v>       0.47500000       0.42500000       0.42500000 </v>
   <v>       0.47500000       0.47500000       0.42500000 </v>
   <v>       0.47500000       0.47500000       0.47500000 </v>
  </varray>
  <varray name="weights" >
   <v>       0.00100000 </v>
   <v>       0.00300000 </v>
   <v>       0.00300000 </v>
   <v>       0.00300000 </v>
   <v>       0.00300000 </v>
   <v>       0.00300000 </v>
   <v>       0.00300000 </v>
   <v>       0.00300000 </v>
   <v>       0.00300000 </v>
   <v>       0.00300000 </v>
   <v>       0.00300000 </v>
   <v>       0.00600000 </v>
   <v>       0.00600000 </v>
   <v>       0.00600000 </v>
   <v>       0.00600000 </v>
   <v>       0.00600000 </v>
   <v>       0.00600000 </v>
   <v>       0.00600000 </v>
   <v>       0.00600000 </v>
   <v>       0.00300000 </v>
   <v>       0.00600000 </v>
   <v>       0.00600000 </v>
   <v>       0.00600000 </v>
   <v>       0.00600000 </v>
   <v>       0.00600000 </v>
   <v>       0.00600000 </v>
   <v>       0.00600000 </v>
   <v>       0.00300000 </v>
   <v>       0.00600000 </v>
   <v>       0.00600000 </v>
   <v>       0.00600000 </v>
   <v>       0.00600000 </v>
   <v>       0.00600000 </v>
   <v>       0.00600000 </v>
   <v>       0.00300000 </v>
   <v>       0.00600000 </v>
   <v>       0.00600000 </v>
   <v>       0.00600000 </v>
   <v>       0.00600000 </v>
   <v>       0.00600000 </v>
   <v>       0.00300000 </v>
   <v>       0.00600000 </v>
   <v>       0.00600000 </v>
   <v>       0.00600000 </v>
   <v>       0.00600000 </v>
   <v>       0.00300000 </v>
   <v>       0.00600000 </v>
   <v>       0.00600000 </v>
   <v>       0.00600000 </v>
   <v>       0.00300000 </v>
   <v>       0.00600000 </v>
   <v>       0.00600000 </v>
   <v>       0.00300000 </v>
   <v>       0.00600000 </v>
   <v>       0.00300000 </v>
   <v>       0.00100000 </v>
   <v>       0.00300000 </v>
   <v>       0.00300000 </v>
   <v>       0.00300000 </v>
   <v>       0.00300000 </v>
   <v>       0.00300000 </v>
   <v>       0.00300000 </v>
   <v>       0.00300000 </v>
   <v>       0.00300000 </v>
   <v>       0.00300000 </v>
   <v>       0.00600000 </v>
   <v>       0.00600000 </v>
   <v>       0.00600000 </v>
   <v>       0.00600000 </v>
   <v>       0.00600000 </v>
   <v>       0.00600000 </v>
   <v>       0.00600000 </v>
   <v>       0.00300000 </v>
   <v>       0.00600000 </v>
   <v>       0.00600000 </v>
   <v>       0.00600000 </v>
   <v>       0.00600000 </v>
   <v>       0.00600000 </v>
   <v>       0.00600000 </v>
   <v>       0.00300000 </v>
   <v>       0.00600000 </v>
   <v>       0.00600000 </v>
   <v>       0.00600000 </v>
   <v>       0.00600000 </v>
   <v>       0.00600000 </v>
   <v>       0.00300000 </v>
   <v>       0.00600000 </v>
   <v>       0.00600000 </v>
   <v>       0.00600000 </v>
   <v>       0.00600000 </v>
   <v>       0.00300000 </v>
   <v>       0.00600000 </v>
   <v>       0.00600000 </v>
   <v>       0.00600000 </v>
   <v>       0.00300000 </v>
   <v>       0.00600000 </v>
   <v>       0.00600000 </v>
   <v>       0.00300000 </v>
   <v>       0.00600000 </v>
   <v>       0.00300000 </v>
   <v>       0.00100000 </v>
   <v>       0.00300000 </v>
   <v>       0.00300000 </v>
   <v>       0.00300000 </v>
   <v>       0.00300000 </v>
   <v>       0.00300000 </v>
   <v>       0.00300000 </v>
   <v>       0.00300000 </v>
   <v>       0.00300000 </v>
   <v>       0.00600000 </v>
   <v>       0.00600000 </v>
   <v>       0.00600000 </v>
   <v>       0.00600000 </v>
   <v>       0.00600000 </v>
   <v>       0.00600000 </v>
   <v>       0.00300000 </v>
   <v>       0.00600000 </v>
   <v>       0.00600000 </v>
   <v>       0.00600000 </v>
   <v>       0.00600000 </v>
   <v>       0.00600000 </v>
   <v>       0.00300000 </v>
   <v>       0.00600000 </v>
   <v>       0.00600000 </v>
   <v>       0.00600000 </v>
   <v>       0.00600000 </v>
   <v>       0.00300000 </v>
   <v>       0.00600000 </v>
   <v>       0.00600000 </v>
   <v>       0.00600000 </v>
   <v>       0.00300000 </v>
   <v>       0.00600000 </v>
   <v>       0.00600000 </v>
   <v>       0.00300000 </v>
   <v>       0.00600000 </v>
   <v>       0.00300000 </v>
   <v>       0.00100000 </v>
   <v>       0.00300000 </v>
   <v>       0.00300000 </v>
   <v>       0.00300000 </v>
   <v>       0.00300000 </v>
   <v>       0.00300000 </v>
   <v>       0.00300000 </v>
   <v>       0.00300000 </v>
   <v>       0.00600000 </v>
   <v>       0.00600000 </v>
   <v>       0.00600000 </v>
   <v>       0.00600000 </v>
   <v>       0.00600000 </v>
   <v>       0.00300000 </v>
   <v>       0.00600000 </v>
   <v>       0.00600000 </v>
   <v>       0.00600000 </v>
   <v>       0.00600000 </v>
   <v>       0.00300000 </v>
   <v>       0.00600000 </v>
   <v>       0.00600000 </v>
   <v>       0.00600000 </v>
   <v>       0.00300000 </v>
   <v>       0.00600000 </v>
   <v>       0.00600000 </v>
   <v>       0.00300000 </v>
   <v>       0.00600000 </v>
   <v>       0.00300000 </v>
   <v>       0.00100000 </v>
   <v>       0.00300000 </v>
   <v>       0.00300000 </v>
   <v>       0.00300000 </v>
   <v>       0.00300000 </v>
   <v>       0.00300000 </v>
   <v>       0.00300000 </v>
   <v>       0.00600000 </v>
   <v>       0.00600000 </v>
   <v>       0.00600000 </v>
   <v>       0.00600000 </v>
   <v>       0.00300000 </v>
   <v>       0.00600000 </v>
   <v>       0.00600000 </v>
   <v>       0.00600000 </v>
   <v>       0.00300000 </v>
   <v>       0.00600000 </v>
   <v>       0.00600000 </v>
   <v>       0.00300000 </v>
   <v>       0.00600000 </v>
   <v>       0.00300000 </v>
   <v>       0.00100000 </v>
   <v>       0.00300000 </v>
   <v>       0.00300000 </v>
   <v>       0.00300000 </v>
   <v>       0.00300000 </v>
   <v>       0.00300000 </v>
   <v>       0.00600000 </v>
   <v>       0.00600000 </v>
   <v>       0.00600000 </v>
   <v>       0.00300000 </v>
   <v>       0.00600000 </v>
   <v>       0.00600000 </v>
   <v>       0.00300000 </v>
   <v>       0.00600000 </v>
   <v>       0.00300000 </v>
   <v>       0.00100000 </v>
   <v>       0.00300000 </v>
   <v>       0.00300000 </v>
   <v>       0.00300000 </v>
   <v>       0.00300000 </v>
   <v>       0.00600000 </v>
   <v>       0.00600000 </v>
   <v>       0.00300000 </v>
   <v>       0.00600000 </v>
   <v>       0.00300000 </v>
   <v>       0.00100000 </v>
   <v>       0.00300000 </v>
   <v>       0.00300000 </v>
   <v>       0.00300000 </v>
   <v>       0.00600000 </v>
   <v>       0.00300000 </v>
   <v>       0.00100000 </v>
   <v>       0.00300000 </v>
   <v>       0.00300000 </v>
   <v>       0.00100000 </v>
  </varray>
 </kpoints>
 <parameters>
  <separator name="general" >
   <i type="string" name="SYSTEM">Pt bulk calculation</i>
   <i type="logical" name="LCOMPAT"> F  </i>
  </separator>
  <separator name="electronic" >
   <i type="string" name="PREC">normal</i>
   <i name="ENMAX">    450.00000000</i>
   <i name="ENAUG">    358.96600000</i>
   <i name="EDIFF">      0.00000100</i>
   <i type="int" name="IALGO">    38</i>
   <i type="int" name="IWAVPR">    11</i>
   <i type="int" name="NBANDS">    24</i>
   <i name="NELECT">     40.00000000</i>
   <i type="int" name="TURBO">     0</i>
   <i type="int" name="IRESTART">     0</i>
   <i type="int" name="NREBOOT">     0</i>
   <i type="int" name="NMIN">     0</i>
   <i name="EREF">      0.00000000</i>
   <separator name="electronic smearing" >
    <i type="int" name="ISMEAR">     2</i>
    <i name="SIGMA">      0.20000000</i>
    <i name="KSPACING">      0.50000000</i>
    <i type="logical" name="KGAMMA"> T  </i>
   </separator>
   <separator name="electronic projectors" >
    <i type="logical" name="LREAL"> F  </i>
    <v name="ROPT">      0.00000000</v>
    <i type="int" name="LMAXPAW">  -100</i>
    <i type="int" name="LMAXMIX">     2</i>
    <i type="logical" name="NLSPLINE"> F  </i>
   </separator>
   <separator name="electronic startup" >
    <i type="int" name="ISTART">     0</i>
    <i type="int" name="ICHARG">     2</i>
    <i type="int" name="INIWAV">     1</i>
   </separator>
   <separator name="electronic spin" >
    <i type="int" name="ISPIN">     1</i>
    <i type="logical" name="LNONCOLLINEAR"> F  </i>
    <v name="MAGMOM">      1.00000000      1.00000000      1.00000000      1.00000000</v>
    <i name="NUPDOWN">     -1.00000000</i>
    <i type="logical" name="LSORBIT"> F  </i>
    <v name="SAXIS">      0.00000000      0.00000000      1.00000000</v>
    <i type="logical" name="LSPIRAL"> F  </i>
    <v name="QSPIRAL">      0.00000000      0.00000000      0.00000000</v>
    <i type="logical" name="LZEROZ"> F  </i>
   </separator>
   <separator name="electronic exchange-correlation" >
    <i type="logical" name="LASPH"> F  </i>
    <i type="logical" name="LMETAGGA"> F  </i>
   </separator>
   <separator name="electronic convergence" >
    <i type="int" name="NELM">    60</i>
    <i type="int" name="NELMDL">    -5</i>
    <i type="int" name="NELMIN">    10</i>
    <i name="ENINI">    450.00000000</i>
    <separator name="electronic convergence detail" >
     <i type="logical" name="LDIAG"> T  </i>
     <i type="logical" name="LSUBROT"> F  </i>
     <i name="WEIMIN">      0.00100000</i>
     <i name="EBREAK">      0.00000001</i>
     <i name="DEPER">      0.30000000</i>
     <i type="int" name="NRMM">     4</i>
     <i name="TIME">      0.40000000</i>
    </separator>
   </separator>
   <separator name="electronic mixer" >
    <i name="AMIX">      0.40000000</i>
    <i name="BMIX">      1.00000000</i>
    <i name="AMIN">      0.10000000</i>
    <i name="AMIX_MAG">      1.60000000</i>
    <i name="BMIX_MAG">      1.00000000</i>
    <separator name="electronic mixer details" >
     <i type="int" name="IMIX">     4</i>
     <i type="logical" name="MIXFIRST"> F  </i>
     <i type="int" name="MAXMIX">   -45</i>
     <i name="WC">    100.00000000</i>
     <i type="int" name="INIMIX">     1</i>
     <i type="int" name="MIXPRE">     1</i>
     <i type="int" name="MREMOVE">     5</i>
    </separator>
   </separator>
   <separator name="electronic dipolcorrection" >
    <i type="logical" name="LDIPOL"> F  </i>
    <i type="logical" name="LMONO"> F  </i>
    <i type="int" name="IDIPOL">     0</i>
    <i name="EPSILON">      1.00000000</i>
    <v name="DIPOL">   -100.00000000   -100.00000000   -100.00000000</v>
    <i name="EFIELD">      0.00000000</i>
   </separator>
  </separator>
  <separator name="grids" >
   <i type="int" name="NGX">    24</i>
   <i type="int" name="NGY">    24</i>
   <i type="int" name="NGZ">    24</i>
   <i type="int" name="NGXF">    48</i>
   <i type="int" name="NGYF">    48</i>
   <i type="int" name="NGZF">    48</i>
   <i type="logical" name="ADDGRID"> F  </i>
  </separator>
  <separator name="ionic" >
   <i type="int" name="NSW">    10</i>
   <i type="int" name="IBRION">     2</i>
   <i type="int" name="MDALGO">     0</i>
   <i type="int" name="ISIF">     2</i>
   <i name="PSTRESS">      0.00000000</i>
   <i name="EDIFFG">     -0.02000000</i>
   <i type="int" name="NFREE">     1</i>
   <i name="POTIM">      0.20000000</i>
   <i name="SMASS">     -3.00000000</i>
   <i name="SCALEE">      1.00000000</i>
  </separator>
  <separator name="ionic md" >
   <i name="TEBEG">      0.00010000</i>
   <i name="TEEND">      0.00010000</i>
   <i type="int" name="NBLOCK">     1</i>
   <i type="int" name="KBLOCK">    10</i>
   <i type="int" name="NPACO">   256</i>
   <i name="APACO">     16.00000000</i>
  </separator>
  <separator name="symmetry" >
   <i type="int" name="ISYM">     2</i>
   <i name="SYMPREC">      0.00001000</i>
  </separator>
  <separator name="dos" >
   <i type="int" name="LORBIT">     0</i>
   <v name="RWIGS">     -1.00000000</v>
   <i type="int" name="NEDOS">   301</i>
   <i name="EMIN">     10.00000000</i>
   <i name="EMAX">    -10.00000000</i>
   <i name="EFERMI">      0.00000000</i>
  </separator>
  <separator name="writing" >
   <i type="int" name="NWRITE">     2</i>
   <i type="logical" name="LWAVE"> T  </i>
   <i type="logical" name="LDOWNSAMPLE"> F  </i>
   <i type="logical" name="LCHARG"> T  </i>
   <i type="logical" name="LPARD"> F  </i>
   <i type="logical" name="LVTOT"> F  </i>
   <i type="logical" name="LVHAR"> F  </i>
   <i type="logical" name="LELF"> F  </i>
   <i type="logical" name="LOPTICS"> F  </i>
   <v name="STM">      0.00000000      0.00000000      0.00000000      0.00000000      0.00000000      0.00000000      0.00000000</v>
  </separator>
  <separator name="performance" >
   <i type="int" name="NPAR">     2</i>
   <i type="int" name="NSIM">     4</i>
   <i type="int" name="NBLK">    -1</i>
   <i type="logical" name="LPLANE"> T  </i>
   <i type="logical" name="LSCALAPACK"> F  </i>
   <i type="logical" name="LSCAAWARE"> F  </i>
   <i type="logical" name="LSCALU"> F  </i>
   <i type="logical" name="LASYNC"> F  </i>
   <i type="logical" name="LORBITALREAL"> F  </i>
  </separator>
  <separator name="miscellaneous" >
   <i type="int" name="IDIOT">     3</i>
   <i type="int" name="ISPECIAL">     0</i>
   <i type="logical" name="LMUSIC"> F  </i>
   <v name="POMASS">    195.08000000</v>
   <v name="DARWINR">      0.00000000</v>
   <v name="DARWINV">      1.00000000</v>
   <i type="logical" name="LCORR"> T  </i>
  </separator>
  <i type="logical" name="GGA_COMPAT"> T  </i>
  <i type="logical" name="LBERRY"> F  </i>
  <i type="int" name="ICORELEVEL">     0</i>
  <i type="logical" name="LDAU"> F  </i>
  <i type="int" name="I_CONSTRAINED_M">     0</i>
  <separator name="electronic exchange-correlation" >
   <i type="string" name="GGA">91</i>
   <i type="int" name="VOSKOWN">     0</i>
   <i type="logical" name="LHFCALC"> F  </i>
   <i type="string" name="PRECFOCK"></i>
   <i type="logical" name="LSYMGRAD"> F  </i>
   <i type="logical" name="LHFONE"> F  </i>
   <i type="logical" name="LRHFCALC"> F  </i>
   <i type="logical" name="LTHOMAS"> F  </i>
   <i type="logical" name="LMODELHF"> F  </i>
   <i name="ENCUT4O">     -1.00000000</i>
   <i type="int" name="EXXOEP">     0</i>
   <i type="int" name="FOURORBIT">     0</i>
   <i name="AEXX">      0.00000000</i>
   <i name="HFALPHA">      0.00000000</i>
   <i name="MCALPHA">      0.00000000</i>
   <i name="ALDAX">      1.00000000</i>
   <i name="AGGAX">      1.00000000</i>
   <i name="ALDAC">      1.00000000</i>
   <i name="AGGAC">      1.00000000</i>
   <i type="int" name="NKREDX">     1</i>
   <i type="int" name="NKREDY">     1</i>
   <i type="int" name="NKREDZ">     1</i>
   <i type="logical" name="SHIFTRED"> F  </i>
   <i type="logical" name="ODDONLY"> F  </i>
   <i type="logical" name="EVENONLY"> F  </i>
   <i type="int" name="LMAXFOCK">     0</i>
   <i type="int" name="NMAXFOCKAE">     0</i>
   <i type="logical" name="LFOCKAEDFT"> F  </i>
   <i name="HFSCREEN">      0.00000000</i>
   <i name="HFSCREENC">      0.00000000</i>
   <i type="int" name="NBANDSGWLOW">     0</i>
  </separator>
  <separator name="vdW DFT" >
   <i type="logical" name="LUSE_VDW"> F  </i>
   <i name="Zab_VDW">     -0.84910000</i>
   <i name="PARAM1">      0.12340000</i>
   <i name="PARAM2">      1.00000000</i>
   <i name="PARAM3">      0.00000000</i>
  </separator>
  <separator name="model GW" >
   <i type="int" name="MODEL_GW">     0</i>
   <i name="MODEL_EPS0">      9.60000000</i>
   <i name="MODEL_ALPHA">      1.00000000</i>
  </separator>
  <separator name="linear response parameters" >
   <i type="logical" name="LEPSILON"> F  </i>
   <i type="logical" name="LRPA"> F  </i>
   <i type="logical" name="LNABLA"> F  </i>
   <i type="logical" name="LVEL"> F  </i>
   <i type="int" name="KINTER">     0</i>
   <i name="CSHIFT">      0.10000000</i>
   <i name="OMEGAMAX">     -1.00000000</i>
   <i name="DEG_THRESHOLD">      0.00200000</i>
   <i name="RTIME">     -0.10000000</i>
   <i name="WPLASMAI">      0.00000000</i>
   <v name="DFIELD">      0.00000000      0.00000000      0.00000000</v>
   <v name="WPLASMA">      0.00000000      0.00000000      0.00000000      0.00000000      0.00000000      0.00000000      0.00000000      0.00000000      0.00000000</v>
  </separator>
  <separator name="orbital magnetization" >
   <i type="logical" name="NUCIND"> F  </i>
   <v name="MAGPOS">      0.00000000      0.00000000      0.00000000</v>
   <i type="logical" name="LNICSALL"> T  </i>
   <i type="logical" name="ORBITALMAG"> F  </i>
   <i type="logical" name="LMAGBLOCH"> F  </i>
   <i type="logical" name="LCHIMAG"> F  </i>
   <i type="logical" name="LGAUGE"> T  </i>
   <i type="int" name="MAGATOM">     0</i>
   <v name="MAGDIPOL">      0.00000000      0.00000000      0.00000000</v>
   <v name="AVECCONST">      0.00000000      0.00000000      0.00000000</v>
  </separator>
  <separator name="response functions" >
   <i type="logical" name="LADDER"> F  </i>
   <i type="logical" name="LRPAFORCE"> F  </i>
   <i type="logical" name="LFXC"> F  </i>
   <i type="logical" name="LHARTREE"> T  </i>
   <i type="int" name="IBSE">     0</i>
   <v type="int" name="KPOINT">    -1     0     0     0</v>
   <i type="logical" name="LTCTE"> F  </i>
   <i type="logical" name="LTETE"> F  </i>
   <i type="logical" name="LTRIPLET"> F  </i>
   <i type="logical" name="LFXCEPS"> F  </i>
   <i type="logical" name="LFXHEG"> F  </i>
   <i type="int" name="NATURALO">     2</i>
   <i type="logical" name="L2ORDER"> F  </i>
   <i type="logical" name="LMP2LT"> F  </i>
   <i type="logical" name="LUSEW"> F  </i>
   <i name="ENCUTGW">     -2.00000000</i>
   <i name="ENCUTGWSOFT">     -2.00000000</i>
   <i name="ENCUTLF">     -1.00000000</i>
   <i type="int" name="LMAXMP2">    -1</i>
   <i name="SCISSOR">      0.00000000</i>
   <i type="int" name="NOMEGA">     0</i>
   <i type="int" name="NOMEGAR">     0</i>
   <i type="int" name="NBANDSGW">    -1</i>
   <i type="int" name="NBANDSO">    -1</i>
   <i type="int" name="NBANDSV">    -1</i>
   <i type="int" name="NELM">     1</i>
   <i type="int" name="NELMHF">     1</i>
   <i type="int" name="DIM">     3</i>
   <i type="int" name="ANTIRES">     0</i>
   <i name="OMEGAMAX">    -30.00000000</i>
   <i name="OMEGAMIN">    -30.00000000</i>
   <i name="OMEGATL">   -200.00000000</i>
   <i type="int" name="OMEGAGRID">   140</i>
   <i name="CSHIFT">     -0.10000000</i>
   <i type="logical" name="SELFENERGY"> F  </i>
   <i type="logical" name="LSPECTRAL"> F  </i>
   <i type="logical" name="LSPECTRALGW"> F  </i>
   <i type="logical" name="LSINGLES"> F  </i>
   <i type="logical" name="LFERMIGW"> F  </i>
   <i type="logical" name="ODDONLYGW"> F  </i>
   <i type="logical" name="EVENONLYGW"> F  </i>
   <i type="int" name="NKREDLFX">     1</i>
   <i type="int" name="NKREDLFY">     1</i>
   <i type="int" name="NKREDLFZ">     1</i>
   <i type="int" name="MAXMEM">  2800</i>
   <i type="int" name="TELESCOPE">     0</i>
   <i type="int" name="TAUPAR">     1</i>
   <i type="int" name="OMEGAPAR">    -1</i>
   <i name="LAMBDA">      1.00000000</i>
  </separator>
  <separator name="External order field" >
   <i name="OFIELD_KAPPA">      0.00000000</i>
   <v name="OFIELD_K">      0.00000000      0.00000000      0.00000000</v>
   <i name="OFIELD_Q6_NEAR">      0.00000000</i>
   <i name="OFIELD_Q6_FAR">      0.00000000</i>
   <i name="OFIELD_A">      0.00000000</i>
  </separator>
 </parameters>
 <atominfo>
  <atoms>       4 </atoms>
  <types>       1 </types>
  <array name="atoms" >
   <dimension dim="1">ion</dimension>
   <field type="string">element</field>
   <field type="int">atomtype</field>
   <set>
    <rc><c>Pt</c><c>   1</c></rc>
    <rc><c>Pt</c><c>   1</c></rc>
    <rc><c>Pt</c><c>   1</c></rc>
    <rc><c>Pt</c><c>   1</c></rc>
   </set>
  </array>
  <array name="atomtypes" >
   <dimension dim="1">type</dimension>
   <field type="int">atomspertype</field>
   <field type="string">element</field>
   <field>mass</field>
   <field>valence</field>
   <field type="string">pseudopotential</field>
   <set>
    <rc><c>   4</c><c>Pt</c><c>    195.08000000</c><c>     10.00000000</c><c> PAW_PBE Pt 05Jan2001                   </c></rc>
   </set>
  </array>
 </atominfo>
 <structure name="initialpos" >
  <crystal>
   <varray name="basis" >
    <v>       4.00000000       0.00000000       0.00000000 </v>
    <v>       0.00000000       4.00000000       0.00000000 </v>
    <v>       0.00000000       0.00000000       4.00000000 </v>
   </varray>
   <i name="volume">     64.00000000 </i>
   <varray name="rec_basis" >
    <v>       0.25000000       0.00000000       0.00000000 </v>
    <v>       0.00000000       0.25000000       0.00000000 </v>
    <v>       0.00000000       0.00000000       0.25000000 </v>
   </varray>
  </crystal>
  <varray name="positions" >
   <v>       0.00000000       0.00000000       0.00000000 </v>
   <v>       0.00000000       0.50000000       0.50000000 </v>
   <v>       0.50000000       0.00000000       0.50000000 </v>
   <v>       0.50000000       0.50000000       0.00000000 </v>
  </varray>
 </structure>
 <calculation>
  <scstep>
   <time name="dav">    2.03    2.03</time>
   <time name="total">    2.05    2.10</time>
   <energy>
    <i name="alphaZ">    363.73820000 </i>
    <i name="ewald">  -3301.05193786 </i>
    <i name="hartreedc">   -307.27343439 </i>
    <i name="XCdc">     13.30623768 </i>
    <i name="pawpsdc">   2293.79710215 </i>
    <i name="pawaedc">  -2181.03440391 </i>
    <i name="eentropy">      0.00125366 </i>
    <i name="bandstr">    642.08195933 </i>
    <i name="atom">   2915.53815049 </i>
    <i name="e_fr_energy">    439.10312716 </i>
    <i name="e_wo_entrp">    439.10187350 </i>
    <i name="e_0_energy">    439.10281374 </i>
   </energy>
  </scstep>
  <scstep>
   <time name="dav">    1.85    1.86</time>
   <time name="total">    1.87    1.87</time>
   <energy>
    <i name="e_fr_energy">      4.24701505 </i>
    <i name="e_wo_entrp">      4.24678116 </i>
    <i name="e_0_energy">      4.24695657 </i>
   </energy>
  </scstep>
  <scstep>
   <time name="dav">    2.47    2.47</time>
   <time name="total">    2.48    2.48</time>
   <energy>
    <i name="e_fr_energy">    -25.16757487 </i>
    <i name="e_wo_entrp">    -25.16296799 </i>
    <i name="e_0_energy">    -25.16642315 </i>
   </energy>
  </scstep>
  <scstep>
   <time name="dav">    1.94    1.94</time>
   <time name="total">    1.96    1.96</time>
   <energy>
    <i name="e_fr_energy">    -26.08323077 </i>
    <i name="e_wo_entrp">    -26.07817186 </i>
    <i name="e_0_energy">    -26.08196604 </i>
   </energy>
  </scstep>
  <scstep>
   <time name="dav">    2.20    2.20</time>
   <time name="total">    2.34    2.34</time>
   <energy>
    <i name="e_fr_energy">    -26.11048989 </i>
    <i name="e_wo_entrp">    -26.10547301 </i>
    <i name="e_0_energy">    -26.10923567 </i>
   </energy>
  </scstep>
  <scstep>
   <time name="dav">    2.17    2.17</time>
   <time name="total">    2.31    2.31</time>
   <energy>
    <i name="e_fr_energy">    -24.55290130 </i>
    <i name="e_wo_entrp">    -24.54767057 </i>
    <i name="e_0_energy">    -24.55159362 </i>
   </energy>
  </scstep>
  <scstep>
   <time name="dav">    2.58    2.58</time>
   <time name="total">    2.73    2.73</time>
   <energy>
    <i name="e_fr_energy">    -24.43135550 </i>
    <i name="e_wo_entrp">    -24.42607362 </i>
    <i name="e_0_energy">    -24.43003503 </i>
   </energy>
  </scstep>
  <scstep>
   <time name="dav">    1.88    1.88</time>
   <time name="total">    2.03    2.03</time>
   <energy>
    <i name="e_fr_energy">    -24.41762429 </i>
    <i name="e_wo_entrp">    -24.41235774 </i>
    <i name="e_0_energy">    -24.41630765 </i>
   </energy>
  </scstep>
  <scstep>
   <time name="dav">    2.29    2.29</time>
   <time name="total">    2.44    2.44</time>
   <energy>
    <i name="e_fr_energy">    -24.41729085 </i>
    <i name="e_wo_entrp">    -24.41202270 </i>
    <i name="e_0_energy">    -24.41597381 </i>
   </energy>
  </scstep>
  <scstep>
   <time name="dav">    1.98    1.98</time>
   <time name="total">    2.13    2.13</time>
   <energy>
    <i name="e_fr_energy">    -24.41730867 </i>
    <i name="e_wo_entrp">    -24.41204071 </i>
    <i name="e_0_energy">    -24.41599168 </i>
   </energy>
  </scstep>
  <scstep>
   <time name="dav">    1.60    1.60</time>
   <time name="total">    1.75    1.75</time>
   <energy>
    <i name="e_fr_energy">    -24.41731101 </i>
    <i name="e_wo_entrp">    -24.41204312 </i>
    <i name="e_0_energy">    -24.41599404 </i>
   </energy>
  </scstep>
  <scstep>
   <time name="dav">    1.24    1.24</time>
   <time name="total">    1.27    1.27</time>
   <energy>
    <i name="alphaZ">    363.73820000 </i>
    <i name="ewald">  -3301.05193786 </i>
    <i name="hartreedc">   -266.35802714 </i>
    <i name="XCdc">     11.69443093 </i>
    <i name="pawpsdc">   2367.09467190 </i>
    <i name="pawaedc">  -2263.81244335 </i>
    <i name="eentropy">     -0.00526791 </i>
    <i name="bandstr">    148.74491217 </i>
    <i name="atom">   2915.53815049 </i>
    <i name="e_fr_energy">    -24.41731077 </i>
    <i name="e_wo_entrp">    -24.41204286 </i>
    <i name="e_0_energy">    -24.41599380 </i>
   </energy>
  </scstep>
  <structure>
   <crystal>
    <varray name="basis" >
     <v>       4.00000000       0.00000000       0.00000000 </v>
     <v>       0.00000000       4.00000000       0.00000000 </v>
     <v>       0.00000000       0.00000000       4.00000000 </v>
    </varray>
    <i name="volume">     64.00000000 </i>
    <varray name="rec_basis" >
     <v>       0.25000000       0.00000000       0.00000000 </v>
     <v>       0.00000000       0.25000000       0.00000000 </v>
     <v>       0.00000000       0.00000000       0.25000000 </v>
    </varray>
   </crystal>
   <varray name="positions" >
    <v>       0.00000000       0.00000000       0.00000000 </v>
    <v>       0.00000000       0.50000000       0.50000000 </v>
    <v>       0.50000000       0.00000000       0.50000000 </v>
    <v>       0.50000000       0.50000000       0.00000000 </v>
   </varray>
  </structure>
  <varray name="forces" >
   <v>       0.00000000       0.00000000      -0.00000000 </v>
   <v>       0.00000000      -0.00000000       0.00000000 </v>
   <v>      -0.00000000      -0.00000000       0.00000000 </v>
   <v>      -0.00000000      -0.00000000      -0.00000000 </v>
  </varray>
  <varray name="stress" >
   <v>     -20.09814572      -0.00000000      -0.00000000 </v>
   <v>       0.00000000     -20.09814572      -0.00000000 </v>
   <v>       0.00000000       0.00000000     -20.09814572 </v>
  </varray>
  <energy>
   <i name="e_fr_energy">    -24.41731077 </i>
   <i name="e_wo_entrp">    -24.41599380 </i>
   <i name="e_0_energy">     -0.00526791 </i>
  </energy>
  <time name="totalsc">   27.21   28.33</time>
  <eigenvalues>
   <array>
    <dimension dim="1">band</dimension>
    <dimension dim="2">kpoint</dimension>
    <dimension dim="3">spin</dimension>
    <field>eigene</field>
    <field>occ</field>
    <set>
     <set comment="spin 1">
      <set comment="kpoint 1">
       <r>   -2.4922    1.0000 </r>
       <r>    0.5821    1.0000 </r>
       <r>    0.5821    1.0000 </r>
       <r>    0.5821    1.0000 </r>
       <r>    0.9928    1.0000 </r>
       <r>    0.9928    1.0000 </r>
       <r>    0.9928    1.0000 </r>
       <r>    3.5562    1.0000 </r>
       <r>    3.5761    1.0000 </r>
       <r>    3.5761    1.0000 </r>
       <r>    5.5307    1.0000 </r>
       <r>    5.5307    1.0000 </r>
       <r>    7.0058    0.5846 </r>
       <r>    7.0058    0.5846 </r>
       <r>    7.0058    0.5846 </r>
       <r>    7.3318   -0.0076 </r>
       <r>    7.3318   -0.0076 </r>
       <r>    7.3318   -0.0076 </r>
       <r>    7.4472    0.0046 </r>
       <r>    7.4472    0.0046 </r>
       <r>    7.4472    0.0046 </r>
       <r>    9.0751    0.0000 </r>
       <r>    9.0751    0.0000 </r>
       <r>    9.0751    0.0000 </r>
      </set>
      <set comment="kpoint 2">
       <r>   -2.4285    1.0000 </r>
       <r>    0.6055    1.0000 </r>
       <r>    0.6282    1.0000 </r>
       <r>    0.6282    1.0000 </r>
       <r>    1.0186    1.0000 </r>
       <r>    1.0320    1.0000 </r>
       <r>    1.0320    1.0000 </r>
       <r>    3.5192    1.0000 </r>
       <r>    3.6053    1.0000 </r>
       <r>    3.6079    1.0000 </r>
       <r>    5.4867    1.0000 </r>
       <r>    5.5476    1.0000 </r>
       <r>    6.9207    0.9419 </r>
       <r>    6.9207    0.9419 </r>
       <r>    6.9767    0.7299 </r>
       <r>    6.9767    0.7299 </r>
       <r>    6.9805    0.7120 </r>
       <r>    7.2365   -0.0478 </r>
       <r>    7.3734    0.0018 </r>
       <r>    7.4430    0.0047 </r>
       <r>    7.4430    0.0047 </r>
       <r>    8.7289    0.0000 </r>
       <r>    9.4894    0.0000 </r>
       <r>    9.4894    0.0000 </r>
      </set>
      <set comment="kpoint 3">
       <r>   -2.3020    1.0000 </r>
       <r>    0.6493    1.0000 </r>
       <r>    0.7188    1.0000 </r>
       <r>    0.7188    1.0000 </r>
       <r>    1.0697    1.0000 </r>
       <r>    1.1102    1.0000 </r>
       <r>    1.1102    1.0000 </r>
       <r>    3.4416    1.0000 </r>
       <r>    3.6689    1.0000 </r>
       <r>    3.6713    1.0000 </r>
       <r>    5.4008    1.0000 </r>
       <r>    5.5810    1.0000 </r>
       <r>    6.4421    0.9995 </r>
       <r>    6.4421    0.9995 </r>
       <r>    6.8170    1.0503 </r>
       <r>    6.8170    1.0503 </r>
       <r>    6.9266    0.9250 </r>
       <r>    7.0438    0.3853 </r>
       <r>    7.2364   -0.0478 </r>
       <r>    7.4425    0.0048 </r>
       <r>    7.4425    0.0048 </r>
       <r>    8.1697    0.0000 </r>
       <r>   10.0696    0.0000 </r>
       <r>   10.0696    0.0000 </r>
      </set>
      <set comment="kpoint 4">
       <r>   -2.1146    1.0000 </r>
       <r>    0.7070    1.0000 </r>
       <r>    0.8505    1.0000 </r>
       <r>    0.8505    1.0000 </r>
       <r>    1.1457    1.0000 </r>
       <r>    1.2271    1.0000 </r>
       <r>    1.2271    1.0000 </r>
       <r>    3.3291    1.0000 </r>
       <r>    3.7642    1.0000 </r>
       <r>    3.7660    1.0000 </r>
       <r>    5.2774    1.0000 </r>
       <r>    5.6304    1.0000 </r>
       <r>    5.9055    1.0000 </r>
       <r>    5.9055    1.0000 </r>
       <r>    6.6303    0.9952 </r>
       <r>    6.6303    0.9952 </r>
       <r>    6.7362    1.0165 </r>
       <r>    6.8302    1.0516 </r>
       <r>    7.0640    0.2849 </r>
       <r>    7.4425    0.0048 </r>
       <r>    7.4425    0.0048 </r>
       <r>    7.5568    0.0012 </r>
       <r>   10.7089    0.0000 </r>
       <r>   10.7089    0.0000 </r>
      </set>
      <set comment="kpoint 5">
       <r>   -1.8693    1.0000 </r>
       <r>    0.7672    1.0000 </r>
       <r>    1.0176    1.0000 </r>
       <r>    1.0176    1.0000 </r>
       <r>    1.2454    1.0000 </r>
       <r>    1.3824    1.0000 </r>
       <r>    1.3824    1.0000 </r>
       <r>    3.1868    1.0000 </r>
       <r>    3.8901    1.0000 </r>
       <r>    3.8914    1.0000 </r>
       <r>    5.1236    1.0000 </r>
       <r>    5.3733    1.0000 </r>
       <r>    5.3733    1.0000 </r>
       <r>    5.6949    1.0000 </r>
       <r>    6.2794    1.0000 </r>
       <r>    6.3960    0.9998 </r>
       <r>    6.3960    0.9998 </r>
       <r>    6.6555    0.9965 </r>
       <r>    6.9081    0.9738 </r>
       <r>    7.0278    0.4689 </r>
       <r>    7.4428    0.0047 </r>
       <r>    7.4428    0.0047 </r>
       <r>   11.3721    0.0000 </r>
       <r>   11.3721    0.0000 </r>
      </set>
      <set comment="kpoint 6">
       <r>   -1.5709    1.0000 </r>
       <r>    0.8120    1.0000 </r>
       <r>    1.2115    1.0000 </r>
       <r>    1.2115    1.0000 </r>
       <r>    1.3674    1.0000 </r>
       <r>    1.5751    1.0000 </r>
       <r>    1.5751    1.0000 </r>
       <r>    3.0205    1.0000 </r>
       <r>    4.0444    1.0000 </r>
       <r>    4.0468    1.0000 </r>
       <r>    4.8584    1.0000 </r>
       <r>    4.8584    1.0000 </r>
       <r>    4.9497    1.0000 </r>
       <r>    5.7168    1.0000 </r>
       <r>    5.7733    1.0000 </r>
       <r>    6.1285    1.0000 </r>
       <r>    6.1285    1.0000 </r>
       <r>    6.4031    0.9998 </r>
       <r>    6.6129    0.9951 </r>
       <r>    6.7852    1.0393 </r>
       <r>    7.4431    0.0047 </r>
       <r>    7.4431    0.0047 </r>
       <r>   12.0408    0.0000 </r>
       <r>   12.0408    0.0000 </r>
      </set>
      <set comment="kpoint 7">
       <r>   -1.2264    1.0000 </r>
       <r>    0.8153    1.0000 </r>
       <r>    1.4189    1.0000 </r>
       <r>    1.4189    1.0000 </r>
       <r>    1.5101    1.0000 </r>
       <r>    1.8039    1.0000 </r>
       <r>    1.8039    1.0000 </r>
       <r>    2.8362    1.0000 </r>
       <r>    4.2214    1.0000 </r>
       <r>    4.2309    1.0000 </r>
       <r>    4.3671    1.0000 </r>
       <r>    4.3671    1.0000 </r>
       <r>    4.7727    1.0000 </r>
       <r>    5.1698    1.0000 </r>
       <r>    5.8489    1.0000 </r>
       <r>    5.8489    1.0000 </r>
       <r>    5.8640    1.0000 </r>
       <r>    6.1141    1.0000 </r>
       <r>    6.2521    1.0000 </r>
       <r>    6.6700    0.9981 </r>
       <r>    7.4435    0.0047 </r>
       <r>    7.4435    0.0047 </r>
       <r>   12.6955    0.0000 </r>
       <r>   12.6955    0.0000 </r>
      </set>
      <set comment="kpoint 8">
       <r>   -0.8467    1.0000 </r>
       <r>    0.7449    1.0000 </r>
       <r>    1.6200    1.0000 </r>
       <r>    1.6200    1.0000 </r>
       <r>    1.6712    1.0000 </r>
       <r>    2.0678    1.0000 </r>
       <r>    2.0678    1.0000 </r>
       <r>    2.6401    1.0000 </r>
       <r>    3.9032    1.0000 </r>
       <r>    3.9032    1.0000 </r>
       <r>    4.3841    1.0000 </r>
       <r>    4.4423    1.0000 </r>
       <r>    4.6446    1.0000 </r>
       <r>    4.7250    1.0000 </r>
       <r>    5.5856    1.0000 </r>
       <r>    5.5856    1.0000 </r>
       <r>    5.8123    1.0000 </r>
       <r>    5.9130    1.0000 </r>
       <r>    5.9653    1.0000 </r>
       <r>    6.5528    0.9968 </r>
       <r>    7.4438    0.0047 </r>
       <r>    7.4438    0.0047 </r>
       <r>   13.2855    0.0000 </r>
       <r>   13.2855    0.0000 </r>
      </set>
      <set comment="kpoint 9">
       <r>   -0.4480    1.0000 </r>
       <r>    0.5738    1.0000 </r>
       <r>    1.7859    1.0000 </r>
       <r>    1.7859    1.0000 </r>
       <r>    1.8481    1.0000 </r>
       <r>    2.3661    1.0000 </r>
       <r>    2.3661    1.0000 </r>
       <r>    2.4381    1.0000 </r>
       <r>    3.4694    1.0000 </r>
       <r>    3.4694    1.0000 </r>
       <r>    4.3652    1.0000 </r>
       <r>    4.4298    1.0000 </r>
       <r>    4.6791    1.0000 </r>
       <r>    4.7525    1.0000 </r>
       <r>    5.3746    1.0000 </r>
       <r>    5.3746    1.0000 </r>
       <r>    5.5105    1.0000 </r>
       <r>    5.5893    1.0000 </r>
       <r>    6.0752    1.0000 </r>
       <r>    6.4327    0.9996 </r>
       <r>    7.4441    0.0047 </r>
       <r>    7.4441    0.0047 </r>
       <r>   13.6242    0.0000 </r>
       <r>   13.6242    0.0000 </r>
      </set>
      <set comment="kpoint 10">
       <r>   -0.0548    1.0000 </r>
       <r>    0.2985    1.0000 </r>
       <r>    1.8818    1.0000 </r>
       <r>    1.8818    1.0000 </r>
       <r>    2.0374    1.0000 </r>
       <r>    2.2355    1.0000 </r>
       <r>    2.6989    1.0000 </r>
       <r>    2.6989    1.0000 </r>
       <r>    3.0681    1.0000 </r>
       <r>    3.0681    1.0000 </r>
       <r>    4.2891    1.0000 </r>
       <r>    4.2935    1.0000 </r>
       <r>    4.9385    1.0000 </r>
       <r>    4.9994    1.0000 </r>
       <r>    5.2172    1.0000 </r>
       <r>    5.2551    1.0000 </r>
       <r>    5.2551    1.0000 </r>
       <r>    5.2831    1.0000 </r>
       <r>    6.1914    1.0000 </r>
       <r>    6.3114    1.0000 </r>
       <r>    7.4442    0.0047 </r>
       <r>    7.4442    0.0047 </r>
       <r>   13.6837    0.0000 </r>
       <r>   13.6837    0.0000 </r>
      </set>
      <set comment="kpoint 11">
       <r>   -2.3654    1.0000 </r>
       <r>    0.6519    1.0000 </r>
       <r>    0.6519    1.0000 </r>
       <r>    0.6705    1.0000 </r>
       <r>    1.0574    1.0000 </r>
       <r>    1.0574    1.0000 </r>
       <r>    1.0735    1.0000 </r>
       <r>    3.4979    1.0000 </r>
       <r>    3.6204    1.0000 </r>
       <r>    3.6368    1.0000 </r>
       <r>    5.4740    1.0000 </r>
       <r>    5.5358    1.0000 </r>
       <r>    6.7104    1.0070 </r>
       <r>    6.7952    1.0435 </r>
       <r>    6.7952    1.0435 </r>
       <r>    6.8745    1.0299 </r>
       <r>    6.9616    0.7973 </r>
       <r>    6.9616    0.7973 </r>
       <r>    7.3719    0.0016 </r>
       <r>    7.3719    0.0016 </r>
       <r>    7.4018    0.0044 </r>
       <r>    9.1564    0.0000 </r>
       <r>    9.1564    0.0000 </r>
       <r>    9.8168    0.0000 </r>
      </set>
      <set comment="kpoint 12">
       <r>   -2.2400    1.0000 </r>
       <r>    0.6963    1.0000 </r>
       <r>    0.7431    1.0000 </r>
       <r>    0.7537    1.0000 </r>
       <r>    1.1079    1.0000 </r>
       <r>    1.1349    1.0000 </r>
       <r>    1.1563    1.0000 </r>
       <r>    3.4312    1.0000 </r>
       <r>    3.6748    1.0000 </r>
       <r>    3.6960    1.0000 </r>
       <r>    5.4012    1.0000 </r>
       <r>    5.5619    1.0000 </r>
       <r>    6.2929    1.0000 </r>
       <r>    6.2971    1.0000 </r>
       <r>    6.5724    0.9961 </r>
       <r>    6.7532    1.0241 </r>
       <r>    6.8227    1.0512 </r>
       <r>    6.8986    0.9938 </r>
       <r>    7.2419   -0.0461 </r>
       <r>    7.3693    0.0012 </r>
       <r>    7.3777    0.0024 </r>
       <r>    8.6276    0.0000 </r>
       <r>    9.7278    0.0000 </r>
       <r>   10.3279    0.0000 </r>
      </set>
      <set comment="kpoint 13">
       <r>   -2.0541    1.0000 </r>
       <r>    0.7547    1.0000 </r>
       <r>    0.8750    1.0000 </r>
       <r>    0.8757    1.0000 </r>
       <r>    1.1828    1.0000 </r>
       <r>    1.2508    1.0000 </r>
       <r>    1.2793    1.0000 </r>
       <r>    3.3247    1.0000 </r>
       <r>    3.7664    1.0000 </r>
       <r>    3.7837    1.0000 </r>
       <r>    5.2844    1.0000 </r>
       <r>    5.6137    1.0000 </r>
       <r>    5.7647    1.0000 </r>
       <r>    5.8090    1.0000 </r>
       <r>    6.2489    1.0000 </r>
       <r>    6.5778    0.9959 </r>
       <r>    6.6435    0.9957 </r>
       <r>    6.7798    1.0368 </r>
       <r>    7.0780    0.2207 </r>
       <r>    7.3668    0.0008 </r>
       <r>    7.3671    0.0009 </r>
       <r>    8.0470    0.0000 </r>
       <r>   10.3397    0.0000 </r>
       <r>   10.9237    0.0000 </r>
      </set>
      <set comment="kpoint 14">
       <r>   -1.8109    1.0000 </r>
       <r>    0.8159    1.0000 </r>
       <r>    1.0304    1.0000 </r>
       <r>    1.0441    1.0000 </r>
       <r>    1.2812    1.0000 </r>
       <r>    1.4047    1.0000 </r>
       <r>    1.4403    1.0000 </r>
       <r>    3.1870    1.0000 </r>
       <r>    3.8904    1.0000 </r>
       <r>    3.8980    1.0000 </r>
       <r>    5.1387    1.0000 </r>
       <r>    5.2399    1.0000 </r>
       <r>    5.3097    1.0000 </r>
       <r>    5.6836    1.0000 </r>
       <r>    5.8346    1.0000 </r>
       <r>    6.3549    0.9999 </r>
       <r>    6.4180    0.9997 </r>
       <r>    6.5917    0.9955 </r>
       <r>    6.9032    0.9846 </r>
       <r>    7.3617   -0.0001 </r>
       <r>    7.3654    0.0006 </r>
       <r>    7.5129    0.0024 </r>
       <r>   10.9570    0.0000 </r>
       <r>   11.5586    0.0000 </r>
      </set>
      <set comment="kpoint 15">
       <r>   -1.5150    1.0000 </r>
       <r>    0.8615    1.0000 </r>
       <r>    1.2140    1.0000 </r>
       <r>    1.2397    1.0000 </r>
       <r>    1.4015    1.0000 </r>
       <r>    1.5956    1.0000 </r>
       <r>    1.6353    1.0000 </r>
       <r>    3.0249    1.0000 </r>
       <r>    4.0322    1.0000 </r>
       <r>    4.0458    1.0000 </r>
       <r>    4.7344    1.0000 </r>
       <r>    4.8169    1.0000 </r>
       <r>    4.9792    1.0000 </r>
       <r>    5.3663    1.0000 </r>
       <r>    5.7693    1.0000 </r>
       <r>    6.0985    1.0000 </r>
       <r>    6.1586    1.0000 </r>
       <r>    6.3445    1.0000 </r>
       <r>    6.6918    1.0021 </r>
       <r>    7.0938    0.1555 </r>
       <r>    7.3594   -0.0005 </r>
       <r>    7.3641    0.0004 </r>
       <r>   11.5559    0.0000 </r>
       <r>   12.2069    0.0000 </r>
      </set>
      <set comment="kpoint 16">
       <r>   -1.1734    1.0000 </r>
       <r>    0.8653    1.0000 </r>
       <r>    1.4170    1.0000 </r>
       <r>    1.4497    1.0000 </r>
       <r>    1.5422    1.0000 </r>
       <r>    1.8221    1.0000 </r>
       <r>    1.8584    1.0000 </r>
       <r>    2.8447    1.0000 </r>
       <r>    4.1714    1.0000 </r>
       <r>    4.2281    1.0000 </r>
       <r>    4.2545    1.0000 </r>
       <r>    4.3414    1.0000 </r>
       <r>    4.8345    1.0000 </r>
       <r>    4.9074    1.0000 </r>
       <r>    5.8295    1.0000 </r>
       <r>    5.8688    1.0000 </r>
       <r>    5.8846    1.0000 </r>
       <r>    6.0643    1.0000 </r>
       <r>    6.3882    0.9999 </r>
       <r>    6.8317    1.0516 </r>
       <r>    7.3586   -0.0007 </r>
       <r>    7.3631    0.0002 </r>
       <r>   12.1088    0.0000 </r>
       <r>   12.8403    0.0000 </r>
      </set>
      <set comment="kpoint 17">
       <r>   -0.7965    1.0000 </r>
       <r>    0.7943    1.0000 </r>
       <r>    1.6232    1.0000 </r>
       <r>    1.6541    1.0000 </r>
       <r>    1.7008    1.0000 </r>
       <r>    2.0826    1.0000 </r>
       <r>    2.1038    1.0000 </r>
       <r>    2.6526    1.0000 </r>
       <r>    3.8046    1.0000 </r>
       <r>    3.8894    1.0000 </r>
       <r>    4.2585    1.0000 </r>
       <r>    4.4364    1.0000 </r>
       <r>    4.5266    1.0000 </r>
       <r>    4.7758    1.0000 </r>
       <r>    5.5765    1.0000 </r>
       <r>    5.6229    1.0000 </r>
       <r>    5.7713    1.0000 </r>
       <r>    5.9803    1.0000 </r>
       <r>    6.0411    1.0000 </r>
       <r>    6.6575    0.9967 </r>
       <r>    7.3586   -0.0007 </r>
       <r>    7.3623    0.0000 </r>
       <r>   12.5778    0.0000 </r>
       <r>   13.3414    0.0000 </r>
      </set>
      <set comment="kpoint 18">
       <r>   -0.4003    1.0000 </r>
       <r>    0.6215    1.0000 </r>
       <r>    1.8030    1.0000 </r>
       <r>    1.8232    1.0000 </r>
       <r>    1.8748    1.0000 </r>
       <r>    2.3707    1.0000 </r>
       <r>    2.3762    1.0000 </r>
       <r>    2.4545    1.0000 </r>
       <r>    3.3890    1.0000 </r>
       <r>    3.4652    1.0000 </r>
       <r>    4.2312    1.0000 </r>
       <r>    4.2746    1.0000 </r>
       <r>    4.6685    1.0000 </r>
       <r>    4.8852    1.0000 </r>
       <r>    5.3765    1.0000 </r>
       <r>    5.4085    1.0000 </r>
       <r>    5.4780    1.0000 </r>
       <r>    5.7030    1.0000 </r>
       <r>    6.1018    1.0000 </r>
       <r>    6.5081    0.9983 </r>
       <r>    7.3591   -0.0006 </r>
       <r>    7.3614   -0.0001 </r>
       <r>   12.9262    0.0000 </r>
       <r>   13.4062    0.0000 </r>
      </set>
      <set comment="kpoint 19">
       <r>   -0.0086    1.0000 </r>
       <r>    0.3448    1.0000 </r>
       <r>    1.9132    1.0000 </r>
       <r>    1.9197    1.0000 </r>
       <r>    2.0610    1.0000 </r>
       <r>    2.2557    1.0000 </r>
       <r>    2.6653    1.0000 </r>
       <r>    2.6997    1.0000 </r>
       <r>    3.0151    1.0000 </r>
       <r>    3.0740    1.0000 </r>
       <r>    4.1643    1.0000 </r>
       <r>    4.1685    1.0000 </r>
       <r>    4.9216    1.0000 </r>
       <r>    5.1098    1.0000 </r>
       <r>    5.1928    1.0000 </r>
       <r>    5.2688    1.0000 </r>
       <r>    5.2804    1.0000 </r>
       <r>    5.3893    1.0000 </r>
       <r>    6.2313    1.0000 </r>
       <r>    6.3670    0.9999 </r>
       <r>    7.3598   -0.0004 </r>
       <r>    7.3606   -0.0003 </r>
       <r>   13.1538    0.0000 </r>
       <r>   13.3032    0.0000 </r>
      </set>
      <set comment="kpoint 20">
       <r>   -2.1167    1.0000 </r>
       <r>    0.7886    1.0000 </r>
       <r>    0.7886    1.0000 </r>
       <r>    0.8231    1.0000 </r>
       <r>    1.1841    1.0000 </r>
       <r>    1.1841    1.0000 </r>
       <r>    1.2471    1.0000 </r>
       <r>    3.3889    1.0000 </r>
       <r>    3.7081    1.0000 </r>
       <r>    3.7462    1.0000 </r>
       <r>    5.3692    1.0000 </r>
       <r>    5.5586    1.0000 </r>
       <r>    6.0016    1.0000 </r>
       <r>    6.0495    1.0000 </r>
       <r>    6.0495    1.0000 </r>
       <r>    6.6380    0.9954 </r>
       <r>    6.7924    1.0424 </r>
       <r>    6.7924    1.0424 </r>
       <r>    7.2338   -0.0486 </r>
       <r>    7.2338   -0.0486 </r>
       <r>    7.3088   -0.0160 </r>
       <r>    9.1920    0.0000 </r>
       <r>    9.1920    0.0000 </r>
       <r>   10.7650    0.0000 </r>
      </set>
      <set comment="kpoint 21">
       <r>   -1.9341    1.0000 </r>
       <r>    0.8487    1.0000 </r>
       <r>    0.9229    1.0000 </r>
       <r>    0.9265    1.0000 </r>
       <r>    1.2570    1.0000 </r>
       <r>    1.2980    1.0000 </r>
       <r>    1.3792    1.0000 </r>
       <r>    3.3026    1.0000 </r>
       <r>    3.7843    1.0000 </r>
       <r>    3.8196    1.0000 </r>
       <r>    5.2794    1.0000 </r>
       <r>    5.5220    1.0000 </r>
       <r>    5.6013    1.0000 </r>
       <r>    5.6136    1.0000 </r>
       <r>    5.7248    1.0000 </r>
       <r>    6.4768    0.9990 </r>
       <r>    6.6342    0.9953 </r>
       <r>    6.7017    1.0045 </r>
       <r>    7.0569    0.3191 </r>
       <r>    7.2257   -0.0505 </r>
       <r>    7.2620   -0.0377 </r>
       <r>    8.6020    0.0000 </r>
       <r>    9.7752    0.0000 </r>
       <r>   11.3040    0.0000 </r>
      </set>
      <set comment="kpoint 22">
       <r>   -1.6951    1.0000 </r>
       <r>    0.9117    1.0000 </r>
       <r>    1.0627    1.0000 </r>
       <r>    1.0939    1.0000 </r>
       <r>    1.3526    1.0000 </r>
       <r>    1.4491    1.0000 </r>
       <r>    1.5474    1.0000 </r>
       <r>    3.1794    1.0000 </r>
       <r>    3.8997    1.0000 </r>
       <r>    3.9124    1.0000 </r>
       <r>    5.0095    1.0000 </r>
       <r>    5.1531    1.0000 </r>
       <r>    5.1793    1.0000 </r>
       <r>    5.3438    1.0000 </r>
       <r>    5.6774    1.0000 </r>
       <r>    6.2732    1.0000 </r>
       <r>    6.4283    0.9997 </r>
       <r>    6.5366    0.9974 </r>
       <r>    6.8612    1.0417 </r>
       <r>    7.2194   -0.0513 </r>
       <r>    7.2340   -0.0485 </r>
       <r>    8.0431    0.0000 </r>
       <r>   10.3502    0.0000 </r>
       <r>   11.8973    0.0000 </r>
      </set>
      <set comment="kpoint 23">
       <r>   -1.4042    1.0000 </r>
       <r>    0.9592    1.0000 </r>
       <r>    1.2295    1.0000 </r>
       <r>    1.2931    1.0000 </r>
       <r>    1.4696    1.0000 </r>
       <r>    1.6364    1.0000 </r>
       <r>    1.7436    1.0000 </r>
       <r>    3.0287    1.0000 </r>
       <r>    4.0139    1.0000 </r>
       <r>    4.0500    1.0000 </r>
       <r>    4.5202    1.0000 </r>
       <r>    4.7313    1.0000 </r>
       <r>    4.9374    1.0000 </r>
       <r>    5.0172    1.0000 </r>
       <r>    5.7766    1.0000 </r>
       <r>    6.0372    1.0000 </r>
       <r>    6.1863    1.0000 </r>
       <r>    6.3043    1.0000 </r>
       <r>    6.6458    0.9958 </r>
       <r>    7.2147   -0.0516 </r>
       <r>    7.2180   -0.0515 </r>
       <r>    7.5644    0.0010 </r>
       <r>   10.8978    0.0000 </r>
       <r>   12.5113    0.0000 </r>
      </set>
      <set comment="kpoint 24">
       <r>   -1.0683    1.0000 </r>
       <r>    0.9638    1.0000 </r>
       <r>    1.4223    1.0000 </r>
       <r>    1.5082    1.0000 </r>
       <r>    1.6060    1.0000 </r>
       <r>    1.8582    1.0000 </r>
       <r>    1.9567    1.0000 </r>
       <r>    2.8585    1.0000 </r>
       <r>    4.0593    1.0000 </r>
       <r>    4.1014    1.0000 </r>
       <r>    4.2293    1.0000 </r>
       <r>    4.2880    1.0000 </r>
       <r>    4.5513    1.0000 </r>
       <r>    4.9102    1.0000 </r>
       <r>    5.7880    1.0000 </r>
       <r>    5.8942    1.0000 </r>
       <r>    5.9259    1.0000 </r>
       <r>    6.0325    1.0000 </r>
       <r>    6.3878    0.9999 </r>
       <r>    7.1904   -0.0463 </r>
       <r>    7.2091   -0.0514 </r>
       <r>    7.2111   -0.0516 </r>
       <r>   11.3987    0.0000 </r>
       <r>   13.0645    0.0000 </r>
      </set>
      <set comment="kpoint 25">
       <r>   -0.6972    1.0000 </r>
       <r>    0.8913    1.0000 </r>
       <r>    1.6311    1.0000 </r>
       <r>    1.7196    1.0000 </r>
       <r>    1.7596    1.0000 </r>
       <r>    2.1120    1.0000 </r>
       <r>    2.1738    1.0000 </r>
       <r>    2.6756    1.0000 </r>
       <r>    3.6320    1.0000 </r>
       <r>    3.8603    1.0000 </r>
       <r>    4.1286    1.0000 </r>
       <r>    4.2392    1.0000 </r>
       <r>    4.4351    1.0000 </r>
       <r>    4.8930    1.0000 </r>
       <r>    5.5544    1.0000 </r>
       <r>    5.6715    1.0000 </r>
       <r>    5.7455    1.0000 </r>
       <r>    6.0273    1.0000 </r>
       <r>    6.0870    1.0000 </r>
       <r>    6.9115    0.9658 </r>
       <r>    7.2046   -0.0509 </r>
       <r>    7.2082   -0.0514 </r>
       <r>   11.8343    0.0000 </r>
       <r>   13.0961    0.0000 </r>
      </set>
      <set comment="kpoint 26">
       <r>   -0.3061    1.0000 </r>
       <r>    0.7151    1.0000 </r>
       <r>    1.8315    1.0000 </r>
       <r>    1.8963    1.0000 </r>
       <r>    1.9279    1.0000 </r>
       <r>    2.3869    1.0000 </r>
       <r>    2.3956    1.0000 </r>
       <r>    2.4859    1.0000 </r>
       <r>    3.2459    1.0000 </r>
       <r>    3.4556    1.0000 </r>
       <r>    4.0445    1.0000 </r>
       <r>    4.0781    1.0000 </r>
       <r>    4.6640    1.0000 </r>
       <r>    5.0027    1.0000 </r>
       <r>    5.3741    1.0000 </r>
       <r>    5.4556    1.0000 </r>
       <r>    5.4578    1.0000 </r>
       <r>    5.7724    1.0000 </r>
       <r>    6.1738    1.0000 </r>
       <r>    6.6923    1.0022 </r>
       <r>    7.2028   -0.0506 </r>
       <r>    7.2058   -0.0511 </r>
       <r>   12.1927    0.0000 </r>
       <r>   12.9096    0.0000 </r>
      </set>
      <set comment="kpoint 27">
       <r>    0.0823    1.0000 </r>
       <r>    0.4356    1.0000 </r>
       <r>    1.9719    1.0000 </r>
       <r>    1.9944    1.0000 </r>
       <r>    2.1075    1.0000 </r>
       <r>    2.2949    1.0000 </r>
       <r>    2.6090    1.0000 </r>
       <r>    2.6937    1.0000 </r>
       <r>    2.9265    1.0000 </r>
       <r>    3.0823    1.0000 </r>
       <r>    3.9761    1.0000 </r>
       <r>    4.0047    1.0000 </r>
       <r>    4.9127    1.0000 </r>
       <r>    5.1785    1.0000 </r>
       <r>    5.2085    1.0000 </r>
       <r>    5.2868    1.0000 </r>
       <r>    5.3165    1.0000 </r>
       <r>    5.4727    1.0000 </r>
       <r>    6.3325    1.0000 </r>
       <r>    6.5038    0.9984 </r>
       <r>    7.2028   -0.0506 </r>
       <r>    7.2039   -0.0508 </r>
       <r>   12.4770    0.0000 </r>
       <r>   12.7072    0.0000 </r>
      </set>
      <set comment="kpoint 28">
       <r>   -1.7562    1.0000 </r>
       <r>    0.9856    1.0000 </r>
       <r>    0.9856    1.0000 </r>
       <r>    1.0081    1.0000 </r>
       <r>    1.3679    1.0000 </r>
       <r>    1.3679    1.0000 </r>
       <r>    1.5199    1.0000 </r>
       <r>    3.2463    1.0000 </r>
       <r>    3.8373    1.0000 </r>
       <r>    3.8713    1.0000 </r>
       <r>    5.2121    1.0000 </r>
       <r>    5.2121    1.0000 </r>
       <r>    5.2314    1.0000 </r>
       <r>    5.3290    1.0000 </r>
       <r>    5.6286    1.0000 </r>
       <r>    6.3336    1.0000 </r>
       <r>    6.5728    0.9961 </r>
       <r>    6.5728    0.9961 </r>
       <r>    7.0357    0.4271 </r>
       <r>    7.0357    0.4271 </r>
       <r>    7.1688   -0.0294 </r>
       <r>    9.1602    0.0000 </r>
       <r>    9.1602    0.0000 </r>
       <r>   11.7920    0.0000 </r>
      </set>
      <set comment="kpoint 29">
       <r>   -1.5235    1.0000 </r>
       <r>    1.0517    1.0000 </r>
       <r>    1.1215    1.0000 </r>
       <r>    1.1602    1.0000 </r>
       <r>    1.4595    1.0000 </r>
       <r>    1.5150    1.0000 </r>
       <r>    1.6928    1.0000 </r>
       <r>    3.1509    1.0000 </r>
       <r>    3.9324    1.0000 </r>
       <r>    3.9354    1.0000 </r>
       <r>    4.7200    1.0000 </r>
       <r>    4.8630    1.0000 </r>
       <r>    4.9809    1.0000 </r>
       <r>    5.1383    1.0000 </r>
       <r>    5.7068    1.0000 </r>
       <r>    6.1531    1.0000 </r>
       <r>    6.3947    0.9998 </r>
       <r>    6.4422    0.9995 </r>
       <r>    6.8181    1.0505 </r>
       <r>    7.0202    0.5087 </r>
       <r>    7.1003    0.1309 </r>
       <r>    8.5724    0.0000 </r>
       <r>    9.7038    0.0000 </r>
       <r>   12.3416    0.0000 </r>
      </set>
      <set comment="kpoint 30">
       <r>   -1.2403    1.0000 </r>
       <r>    1.1021    1.0000 </r>
       <r>    1.2671    1.0000 </r>
       <r>    1.3647    1.0000 </r>
       <r>    1.5713    1.0000 </r>
       <r>    1.6971    1.0000 </r>
       <r>    1.8868    1.0000 </r>
       <r>    3.0229    1.0000 </r>
       <r>    3.9971    1.0000 </r>
       <r>    4.0700    1.0000 </r>
       <r>    4.2536    1.0000 </r>
       <r>    4.5052    1.0000 </r>
       <r>    4.5982    1.0000 </r>
       <r>    5.0305    1.0000 </r>
       <r>    5.8231    1.0000 </r>
       <r>    5.9433    1.0000 </r>
       <r>    6.1779    1.0000 </r>
       <r>    6.2406    1.0000 </r>
       <r>    6.5851    0.9957 </r>
       <r>    7.0096    0.5650 </r>
       <r>    7.0543    0.3319 </r>
       <r>    8.0526    0.0000 </r>
       <r>   10.2192    0.0000 </r>
       <r>   12.8805    0.0000 </r>
      </set>
      <set comment="kpoint 31">
       <r>   -0.9130    1.0000 </r>
       <r>    1.1076    1.0000 </r>
       <r>    1.4435    1.0000 </r>
       <r>    1.5874    1.0000 </r>
       <r>    1.7013    1.0000 </r>
       <r>    1.9119    1.0000 </r>
       <r>    2.0871    1.0000 </r>
       <r>    2.8715    1.0000 </r>
       <r>    3.8171    1.0000 </r>
       <r>    4.0358    1.0000 </r>
       <r>    4.1789    1.0000 </r>
       <r>    4.2037    1.0000 </r>
       <r>    4.2405    1.0000 </r>
       <r>    4.9518    1.0000 </r>
       <r>    5.7206    1.0000 </r>
       <r>    5.9386    1.0000 </r>
       <r>    5.9665    1.0000 </r>
       <r>    5.9884    1.0000 </r>
       <r>    6.3311    1.0000 </r>
       <r>    7.0020    0.6042 </r>
       <r>    7.0250    0.4834 </r>
       <r>    7.6186    0.0003 </r>
       <r>   10.6933    0.0000 </r>
       <r>   12.8306    0.0000 </r>
      </set>
      <set comment="kpoint 32">
       <r>   -0.5511    1.0000 </r>
       <r>    1.0326    1.0000 </r>
       <r>    1.6460    1.0000 </r>
       <r>    1.8101    1.0000 </r>
       <r>    1.8471    1.0000 </r>
       <r>    2.1558    1.0000 </r>
       <r>    2.2736    1.0000 </r>
       <r>    2.7047    1.0000 </r>
       <r>    3.4165    1.0000 </r>
       <r>    3.8132    1.0000 </r>
       <r>    3.9311    1.0000 </r>
       <r>    4.0181    1.0000 </r>
       <r>    4.4398    1.0000 </r>
       <r>    4.9523    1.0000 </r>
       <r>    5.5125    1.0000 </r>
       <r>    5.6985    1.0000 </r>
       <r>    5.7132    1.0000 </r>
       <r>    6.0526    1.0000 </r>
       <r>    6.1313    1.0000 </r>
       <r>    6.9967    0.6317 </r>
       <r>    7.0073    0.5770 </r>
       <r>    7.2672   -0.0353 </r>
       <r>   11.1150    0.0000 </r>
       <r>   12.5634    0.0000 </r>
      </set>
      <set comment="kpoint 33">
       <r>   -0.1682    1.0000 </r>
       <r>    0.8507    1.0000 </r>
       <r>    1.8614    1.0000 </r>
       <r>    2.0010    1.0000 </r>
       <r>    2.0062    1.0000 </r>
       <r>    2.4225    1.0000 </r>
       <r>    2.4260    1.0000 </r>
       <r>    2.5294    1.0000 </r>
       <r>    3.0649    1.0000 </r>
       <r>    3.4380    1.0000 </r>
       <r>    3.7977    1.0000 </r>
       <r>    3.9404    1.0000 </r>
       <r>    4.6628    1.0000 </r>
       <r>    5.0550    1.0000 </r>
       <r>    5.3571    1.0000 </r>
       <r>    5.4346    1.0000 </r>
       <r>    5.4873    1.0000 </r>
       <r>    5.7634    1.0000 </r>
       <r>    6.3141    1.0000 </r>
       <r>    6.9793    0.7174 </r>
       <r>    6.9932    0.6495 </r>
       <r>    6.9973    0.6284 </r>
       <r>   11.4787    0.0000 </r>
       <r>   12.3093    0.0000 </r>
      </set>
      <set comment="kpoint 34">
       <r>    0.2146    1.0000 </r>
       <r>    0.5670    1.0000 </r>
       <r>    2.0466    1.0000 </r>
       <r>    2.1034    1.0000 </r>
       <r>    2.1755    1.0000 </r>
       <r>    2.3513    1.0000 </r>
       <r>    2.5493    1.0000 </r>
       <r>    2.6502    1.0000 </r>
       <r>    2.8472    1.0000 </r>
       <r>    3.0895    1.0000 </r>
       <r>    3.7795    1.0000 </r>
       <r>    3.8433    1.0000 </r>
       <r>    4.9051    1.0000 </r>
       <r>    5.1633    1.0000 </r>
       <r>    5.2419    1.0000 </r>
       <r>    5.2933    1.0000 </r>
       <r>    5.3408    1.0000 </r>
       <r>    5.4857    1.0000 </r>
       <r>    6.5140    0.9982 </r>
       <r>    6.7333    1.0153 </r>
       <r>    6.9916    0.6572 </r>
       <r>    6.9927    0.6520 </r>
       <r>   11.7884    0.0000 </r>
       <r>   12.0583    0.0000 </r>
      </set>
      <set comment="kpoint 35">
       <r>   -1.2991    1.0000 </r>
       <r>    1.2107    1.0000 </r>
       <r>    1.2308    1.0000 </r>
       <r>    1.2308    1.0000 </r>
       <r>    1.6012    1.0000 </r>
       <r>    1.6012    1.0000 </r>
       <r>    1.8656    1.0000 </r>
       <r>    3.0907    1.0000 </r>
       <r>    3.9617    1.0000 </r>
       <r>    4.0048    1.0000 </r>
       <r>    4.4023    1.0000 </r>
       <r>    4.4023    1.0000 </r>
       <r>    4.7213    1.0000 </r>
       <r>    5.0798    1.0000 </r>
       <r>    5.7928    1.0000 </r>
       <r>    5.9989    1.0000 </r>
       <r>    6.2984    1.0000 </r>
       <r>    6.2984    1.0000 </r>
       <r>    6.7863    1.0398 </r>
       <r>    6.7863    1.0398 </r>
       <r>    6.9855    0.6876 </r>
       <r>    9.0877    0.0000 </r>
       <r>    9.0877    0.0000 </r>
       <r>   12.8179    0.0000 </r>
      </set>
      <set comment="kpoint 36">
       <r>   -1.0262    1.0000 </r>
       <r>    1.2852    1.0000 </r>
       <r>    1.3320    1.0000 </r>
       <r>    1.4416    1.0000 </r>
       <r>    1.7061    1.0000 </r>
       <r>    1.7765    1.0000 </r>
       <r>    2.0533    1.0000 </r>
       <r>    2.9969    1.0000 </r>
       <r>    3.9667    1.0000 </r>
       <r>    3.9845    1.0000 </r>
       <r>    4.0879    1.0000 </r>
       <r>    4.1185    1.0000 </r>
       <r>    4.4164    1.0000 </r>
       <r>    4.9986    1.0000 </r>
       <r>    5.8177    1.0000 </r>
       <r>    5.9298    1.0000 </r>
       <r>    6.1120    1.0000 </r>
       <r>    6.1338    1.0000 </r>
       <r>    6.5331    0.9976 </r>
       <r>    6.7658    1.0301 </r>
       <r>    6.8975    0.9959 </r>
       <r>    8.5357    0.0000 </r>
       <r>    9.5782    0.0000 </r>
       <r>   12.6753    0.0000 </r>
      </set>
      <set comment="kpoint 37">
       <r>   -0.7108    1.0000 </r>
       <r>    1.2918    1.0000 </r>
       <r>    1.4857    1.0000 </r>
       <r>    1.6734    1.0000 </r>
       <r>    1.8273    1.0000 </r>
       <r>    1.9830    1.0000 </r>
       <r>    2.2385    1.0000 </r>
       <r>    2.8752    1.0000 </r>
       <r>    3.5602    1.0000 </r>
       <r>    3.8158    1.0000 </r>
       <r>    3.9824    1.0000 </r>
       <r>    4.0851    1.0000 </r>
       <r>    4.2715    1.0000 </r>
       <r>    4.9374    1.0000 </r>
       <r>    5.6241    1.0000 </r>
       <r>    5.8986    1.0000 </r>
       <r>    5.9124    1.0000 </r>
       <r>    6.1034    1.0000 </r>
       <r>    6.2668    1.0000 </r>
       <r>    6.7529    1.0240 </r>
       <r>    6.8349    1.0514 </r>
       <r>    8.0615    0.0000 </r>
       <r>   10.0337    0.0000 </r>
       <r>   12.3224    0.0000 </r>
      </set>
      <set comment="kpoint 38">
       <r>   -0.3615    1.0000 </r>
       <r>    1.2120    1.0000 </r>
       <r>    1.6708    1.0000 </r>
       <r>    1.9108    1.0000 </r>
       <r>    1.9624    1.0000 </r>
       <r>    2.2147    1.0000 </r>
       <r>    2.3967    1.0000 </r>
       <r>    2.7339    1.0000 </r>
       <r>    3.1885    1.0000 </r>
       <r>    3.6311    1.0000 </r>
       <r>    3.7447    1.0000 </r>
       <r>    3.9308    1.0000 </r>
       <r>    4.4570    1.0000 </r>
       <r>    4.9421    1.0000 </r>
       <r>    5.4437    1.0000 </r>
       <r>    5.6589    1.0000 </r>
       <r>    5.6786    1.0000 </r>
       <r>    5.9888    1.0000 </r>
       <r>    6.3038    1.0000 </r>
       <r>    6.7452    1.0204 </r>
       <r>    6.7928    1.0426 </r>
       <r>    7.6626    0.0001 </r>
       <r>   10.4463    0.0000 </r>
       <r>   12.0032    0.0000 </r>
      </set>
      <set comment="kpoint 39">
       <r>    0.0092    1.0000 </r>
       <r>    1.0214    1.0000 </r>
       <r>    1.8836    1.0000 </r>
       <r>    2.1085    1.0000 </r>
       <r>    2.1264    1.0000 </r>
       <r>    2.4541    1.0000 </r>
       <r>    2.4973    1.0000 </r>
       <r>    2.5805    1.0000 </r>
       <r>    2.8729    1.0000 </r>
       <r>    3.4095    1.0000 </r>
       <r>    3.5623    1.0000 </r>
       <r>    3.8276    1.0000 </r>
       <r>    4.6675    1.0000 </r>
       <r>    5.0355    1.0000 </r>
       <r>    5.3137    1.0000 </r>
       <r>    5.3966    1.0000 </r>
       <r>    5.4784    1.0000 </r>
       <r>    5.7076    1.0000 </r>
       <r>    6.5255    0.9978 </r>
       <r>    6.7419    1.0190 </r>
       <r>    6.7662    1.0303 </r>
       <r>    7.3248   -0.0099 </r>
       <r>   10.8128    0.0000 </r>
       <r>   11.7121    0.0000 </r>
      </set>
      <set comment="kpoint 40">
       <r>    0.3830    1.0000 </r>
       <r>    0.7327    1.0000 </r>
       <r>    2.1084    1.0000 </r>
       <r>    2.2420    1.0000 </r>
       <r>    2.2628    1.0000 </r>
       <r>    2.4217    1.0000 </r>
       <r>    2.5207    1.0000 </r>
       <r>    2.5364    1.0000 </r>
       <r>    2.8232    1.0000 </r>
       <r>    3.0925    1.0000 </r>
       <r>    3.5992    1.0000 </r>
       <r>    3.7028    1.0000 </r>
       <r>    4.8965    1.0000 </r>
       <r>    5.1403    1.0000 </r>
       <r>    5.2088    1.0000 </r>
       <r>    5.2711    1.0000 </r>
       <r>    5.3314    1.0000 </r>
       <r>    5.4405    1.0000 </r>
       <r>    6.7433    1.0196 </r>
       <r>    6.7507    1.0230 </r>
       <r>    6.7670    1.0307 </r>
       <r>    7.0308    0.4528 </r>
       <r>   11.1369    0.0000 </r>
       <r>   11.4304    0.0000 </r>
      </set>
      <set comment="kpoint 41">
       <r>   -0.7661    1.0000 </r>
       <r>    1.4264    1.0000 </r>
       <r>    1.5013    1.0000 </r>
       <r>    1.5013    1.0000 </r>
       <r>    1.8730    1.0000 </r>
       <r>    1.8730    1.0000 </r>
       <r>    2.2299    1.0000 </r>
       <r>    2.9432    1.0000 </r>
       <r>    3.6926    1.0000 </r>
       <r>    3.6926    1.0000 </r>
       <r>    3.9703    1.0000 </r>
       <r>    4.1906    1.0000 </r>
       <r>    4.2051    1.0000 </r>
       <r>    4.9357    1.0000 </r>
       <r>    5.6657    1.0000 </r>
       <r>    5.9809    1.0000 </r>
[...]
       <r>    7.5681    0.0009 </r>
       <r>    7.9833    0.0000 </r>
       <r>    7.9833    0.0000 </r>
       <r>    8.3018    0.0000 </r>
      </set>
      <set comment="kpoint 217">
       <r>    0.2827    1.0000 </r>
       <r>    0.4579    1.0000 </r>
       <r>    0.4579    1.0000 </r>
       <r>    0.4579    1.0000 </r>
       <r>    3.3902    1.0000 </r>
       <r>    3.3902    1.0000 </r>
       <r>    3.3902    1.0000 </r>
       <r>    3.5720    1.0000 </r>
       <r>    3.5720    1.0000 </r>
       <r>    3.6660    1.0000 </r>
       <r>    3.6660    1.0000 </r>
       <r>    3.6660    1.0000 </r>
       <r>    5.5996    1.0000 </r>
       <r>    5.5996    1.0000 </r>
       <r>    5.5996    1.0000 </r>
       <r>    5.8967    1.0000 </r>
       <r>    6.8709    1.0336 </r>
       <r>    6.8709    1.0336 </r>
       <r>    7.0678    0.2668 </r>
       <r>    7.0678    0.2668 </r>
       <r>    7.0678    0.2668 </r>
       <r>    8.2456    0.0000 </r>
       <r>    8.2456    0.0000 </r>
       <r>    8.2456    0.0000 </r>
      </set>
      <set comment="kpoint 218">
       <r>    0.3065    1.0000 </r>
       <r>    0.3651    1.0000 </r>
       <r>    0.4218    1.0000 </r>
       <r>    0.4218    1.0000 </r>
       <r>    3.4158    1.0000 </r>
       <r>    3.4158    1.0000 </r>
       <r>    3.4705    1.0000 </r>
       <r>    3.5318    1.0000 </r>
       <r>    3.5705    1.0000 </r>
       <r>    3.6021    1.0000 </r>
       <r>    3.6254    1.0000 </r>
       <r>    3.6254    1.0000 </r>
       <r>    5.8166    1.0000 </r>
       <r>    5.8166    1.0000 </r>
       <r>    5.8650    1.0000 </r>
       <r>    6.0323    1.0000 </r>
       <r>    6.9869    0.6809 </r>
       <r>    7.0402    0.4039 </r>
       <r>    7.0402    0.4039 </r>
       <r>    7.0535    0.3361 </r>
       <r>    7.0976    0.1409 </r>
       <r>    7.6287    0.0003 </r>
       <r>    8.1872    0.0000 </r>
       <r>    8.1872    0.0000 </r>
      </set>
      <set comment="kpoint 219">
       <r>    0.3085    1.0000 </r>
       <r>    0.3470    1.0000 </r>
       <r>    0.3470    1.0000 </r>
       <r>    0.3660    1.0000 </r>
       <r>    3.4608    1.0000 </r>
       <r>    3.4794    1.0000 </r>
       <r>    3.4794    1.0000 </r>
       <r>    3.5232    1.0000 </r>
       <r>    3.5461    1.0000 </r>
       <r>    3.5692    1.0000 </r>
       <r>    3.5692    1.0000 </r>
       <r>    3.5771    1.0000 </r>
       <r>    6.0851    1.0000 </r>
       <r>    6.1221    1.0000 </r>
       <r>    6.1221    1.0000 </r>
       <r>    6.2735    1.0000 </r>
       <r>    6.9591    0.8078 </r>
       <r>    7.0241    0.4882 </r>
       <r>    7.0241    0.4882 </r>
       <r>    7.0261    0.4775 </r>
       <r>    7.2778   -0.0302 </r>
       <r>    7.6804    0.0001 </r>
       <r>    7.6804    0.0001 </r>
       <r>    7.8866    0.0000 </r>
      </set>
      <set comment="kpoint 220">
       <r>    0.2898    1.0000 </r>
       <r>    0.3090    1.0000 </r>
       <r>    0.3090    1.0000 </r>
       <r>    0.3090    1.0000 </r>
       <r>    3.5023    1.0000 </r>
       <r>    3.5023    1.0000 </r>
       <r>    3.5023    1.0000 </r>
       <r>    3.5233    1.0000 </r>
       <r>    3.5233    1.0000 </r>
       <r>    3.5337    1.0000 </r>
       <r>    3.5337    1.0000 </r>
       <r>    3.5337    1.0000 </r>
       <r>    6.4877    0.9988 </r>
       <r>    6.4877    0.9988 </r>
       <r>    6.4877    0.9988 </r>
       <r>    6.7168    1.0092 </r>
       <r>    7.0346    0.4331 </r>
       <r>    7.0346    0.4331 </r>
       <r>    7.0573    0.3173 </r>
       <r>    7.0573    0.3173 </r>
       <r>    7.0573    0.3173 </r>
       <r>    7.4087    0.0047 </r>
       <r>    7.4087    0.0047 </r>
       <r>    7.4087    0.0047 </r>
      </set>
     </set>
    </set>
   </array>
  </eigenvalues>
  <separator name="orbital magnetization" >
   <v name="MAGDIPOLOUT">      0.00000000      0.00000000      0.00000000</v>
  </separator>
  <dos>
   <i name="efermi">      7.02187804 </i>
   <total>
    <array>
     <dimension dim="1">gridpoints</dimension>
     <dimension dim="2">spin</dimension>
     <field>energy</field>
     <field>total</field>
     <field>integrated</field>
     <set>
      <set comment="spin 1">
       <r>    -4.4922     0.0000     0.0000 </r>
       <r>    -4.4250     0.0000     0.0000 </r>
       <r>    -4.3577     0.0000     0.0000 </r>
       <r>    -4.2905     0.0000     0.0000 </r>
       <r>    -4.2232     0.0000     0.0000 </r>
       <r>    -4.1560     0.0000     0.0000 </r>
       <r>    -4.0887     0.0000     0.0000 </r>
       <r>    -4.0215     0.0000     0.0000 </r>
       <r>    -3.9542     0.0000     0.0000 </r>
       <r>    -3.8870     0.0000     0.0000 </r>
       <r>    -3.8197     0.0000     0.0000 </r>
       <r>    -3.7525     0.0000     0.0000 </r>
       <r>    -3.6852     0.0000     0.0000 </r>
       <r>    -3.6180     0.0000     0.0000 </r>
       <r>    -3.5507     0.0000     0.0000 </r>
       <r>    -3.4834     0.0000     0.0000 </r>
       <r>    -3.4162     0.0000     0.0000 </r>
       <r>    -3.3489     0.0000     0.0000 </r>
       <r>    -3.2817     0.0000     0.0000 </r>
       <r>    -3.2144     0.0000     0.0000 </r>
       <r>    -3.1472     0.0000     0.0000 </r>
       <r>    -3.0799     0.0000     0.0000 </r>
       <r>    -3.0127     0.0001     0.0000 </r>
       <r>    -2.9454     0.0002     0.0000 </r>
       <r>    -2.8782     0.0004     0.0000 </r>
       <r>    -2.8109     0.0002     0.0001 </r>
       <r>    -2.7437    -0.0011    -0.0000 </r>
       <r>    -2.6764    -0.0034    -0.0002 </r>
       <r>    -2.6092    -0.0029    -0.0004 </r>
       <r>    -2.5419     0.0075     0.0001 </r>
       <r>    -2.4747     0.0319     0.0022 </r>
       <r>    -2.4074     0.0666     0.0067 </r>
       <r>    -2.3401     0.1015     0.0135 </r>
       <r>    -2.2729     0.1290     0.0222 </r>
       <r>    -2.2056     0.1500     0.0323 </r>
       <r>    -2.1384     0.1696     0.0437 </r>
       <r>    -2.0711     0.1875     0.0563 </r>
       <r>    -2.0039     0.2006     0.0698 </r>
       <r>    -1.9366     0.2137     0.0842 </r>
       <r>    -1.8694     0.2338     0.0999 </r>
       <r>    -1.8021     0.2553     0.1171 </r>
       <r>    -1.7349     0.2658     0.1349 </r>
       <r>    -1.6676     0.2680     0.1530 </r>
       <r>    -1.6004     0.2821     0.1719 </r>
       <r>    -1.5331     0.3143     0.1931 </r>
       <r>    -1.4659     0.3395     0.2159 </r>
       <r>    -1.3986     0.3379     0.2386 </r>
       <r>    -1.3313     0.3313     0.2609 </r>
       <r>    -1.2641     0.3512     0.2845 </r>
       <r>    -1.1968     0.3900     0.3108 </r>
       <r>    -1.1296     0.4175     0.3388 </r>
       <r>    -1.0623     0.4252     0.3674 </r>
       <r>    -0.9951     0.4244     0.3960 </r>
       <r>    -0.9278     0.4258     0.4246 </r>
       <r>    -0.8606     0.4445     0.4545 </r>
       <r>    -0.7933     0.4912     0.4875 </r>
       <r>    -0.7261     0.5416     0.5240 </r>
       <r>    -0.6588     0.5519     0.5611 </r>
       <r>    -0.5916     0.5255     0.5964 </r>
       <r>    -0.5243     0.5237     0.6316 </r>
       <r>    -0.4571     0.5836     0.6709 </r>
       <r>    -0.3898     0.6593     0.7152 </r>
       <r>    -0.3225     0.6875     0.7615 </r>
       <r>    -0.2553     0.6813     0.8073 </r>
       <r>    -0.1880     0.7018     0.8545 </r>
       <r>    -0.1208     0.7586     0.9055 </r>
       <r>    -0.0535     0.8108     0.9600 </r>
       <r>     0.0137     0.8532     1.0174 </r>
       <r>     0.0810     0.9209     1.0794 </r>
       <r>     0.1482     1.0389     1.1492 </r>
       <r>     0.2155     1.2358     1.2323 </r>
       <r>     0.2827     1.5466     1.3363 </r>
       <r>     0.3500     1.9241     1.4657 </r>
       <r>     0.4172     2.2161     1.6148 </r>
       <r>     0.4845     2.3324     1.7717 </r>
       <r>     0.5517     2.3900     1.9324 </r>
       <r>     0.6190     2.5850     2.1062 </r>
       <r>     0.6863     2.9545     2.3049 </r>
       <r>     0.7535     3.3698     2.5316 </r>
       <r>     0.8208     3.7238     2.7820 </r>
       <r>     0.8880     4.0253     3.0527 </r>
       <r>     0.9553     4.3358     3.3443 </r>
       <r>     1.0225     4.6982     3.6603 </r>
       <r>     1.0898     5.1185     4.0045 </r>
       <r>     1.1570     5.5565     4.3782 </r>
       <r>     1.2243     5.9229     4.7766 </r>
       <r>     1.2915     6.1258     5.1885 </r>
       <r>     1.3588     6.1508     5.6022 </r>
       <r>     1.4260     6.0596     6.0097 </r>
       <r>     1.4933     5.9040     6.4068 </r>
       <r>     1.5605     5.7243     6.7918 </r>
       <r>     1.6278     5.5744     7.1667 </r>
       <r>     1.6951     5.4679     7.5344 </r>
       <r>     1.7623     5.4036     7.8978 </r>
       <r>     1.8296     5.3922     8.2604 </r>
       <r>     1.8968     5.3428     8.6198 </r>
       <r>     1.9641     5.1186     8.9640 </r>
       <r>     2.0313     4.7410     9.2829 </r>
       <r>     2.0986     4.3176     9.5732 </r>
       <r>     2.1658     3.9155     9.8366 </r>
       <r>     2.2331     3.7071    10.0859 </r>
       <r>     2.3003     3.9545    10.3518 </r>
       <r>     2.3676     4.6252    10.6629 </r>
       <r>     2.4348     5.2834    11.0182 </r>
       <r>     2.5021     5.5716    11.3929 </r>
       <r>     2.5693     5.5943    11.7692 </r>
       <r>     2.6366     5.6495    12.1491 </r>
       <r>     2.7039     5.8117    12.5400 </r>
       <r>     2.7711     5.9635    12.9410 </r>
       <r>     2.8384     6.0203    13.3459 </r>
       <r>     2.9056     6.0110    13.7502 </r>
       <r>     2.9729     6.0660    14.1581 </r>
       <r>     3.0401     6.2730    14.5800 </r>
       <r>     3.1074     6.4973    15.0170 </r>
       <r>     3.1746     6.5344    15.4564 </r>
       <r>     3.2419     6.4350    15.8892 </r>
       <r>     3.3091     6.4781    16.3249 </r>
       <r>     3.3764     6.8078    16.7827 </r>
       <r>     3.4436     7.2443    17.2699 </r>
       <r>     3.5109     7.5288    17.7763 </r>
       <r>     3.5781     7.6510    18.2908 </r>
       <r>     3.6454     7.8303    18.8174 </r>
       <r>     3.7127     8.2805    19.3743 </r>
       <r>     3.7799     9.0711    19.9844 </r>
       <r>     3.8472    10.0293    20.6589 </r>
       <r>     3.9144    10.6507    21.3752 </r>
       <r>     3.9817    10.3596    22.0719 </r>
       <r>     4.0489     9.1040    22.6842 </r>
       <r>     4.1162     7.5458    23.1917 </r>
       <r>     4.1834     6.4449    23.6251 </r>
       <r>     4.2507     5.9634    24.0262 </r>
       <r>     4.3179     5.7444    24.4125 </r>
       <r>     4.3852     5.4831    24.7812 </r>
       <r>     4.4524     5.1651    25.1286 </r>
       <r>     4.5197     4.9028    25.4583 </r>
       <r>     4.5869     4.7872    25.7803 </r>
       <r>     4.6542     4.8128    26.1040 </r>
       <r>     4.7215     4.8661    26.4312 </r>
       <r>     4.7887     4.9054    26.7611 </r>
       <r>     4.8560     5.0524    27.1009 </r>
       <r>     4.9232     5.3592    27.4614 </r>
       <r>     4.9905     5.6820    27.8435 </r>
       <r>     5.0577     5.9350    28.2426 </r>
       <r>     5.1250     6.2450    28.6626 </r>
       <r>     5.1922     6.6848    29.1122 </r>
       <r>     5.2595     7.0385    29.5856 </r>
       <r>     5.3267     7.0173    30.0575 </r>
       <r>     5.3940     6.5911    30.5008 </r>
       <r>     5.4612     5.9947    30.9039 </r>
       <r>     5.5285     5.5350    31.2762 </r>
       <r>     5.5957     5.3893    31.6386 </r>
       <r>     5.6630     5.4540    32.0054 </r>
       <r>     5.7303     5.4509    32.3720 </r>
       <r>     5.7975     5.2536    32.7253 </r>
       <r>     5.8648     4.9970    33.0614 </r>
       <r>     5.9320     4.8605    33.3883 </r>
       <r>     5.9993     4.8677    33.7157 </r>
       <r>     6.0665     4.8961    34.0449 </r>
       <r>     6.1338     4.8400    34.3704 </r>
       <r>     6.2010     4.7686    34.6912 </r>
       <r>     6.2683     4.8314    35.0161 </r>
       <r>     6.3355     5.0127    35.3532 </r>
       <r>     6.4028     5.1655    35.7006 </r>
       <r>     6.4700     5.2266    36.0521 </r>
       <r>     6.5373     5.2447    36.4048 </r>
       <r>     6.6045     5.3540    36.7649 </r>
       <r>     6.6718     5.7563    37.1520 </r>
       <r>     6.7391     6.5142    37.5901 </r>
       <r>     6.8063     7.4373    38.0903 </r>
       <r>     6.8736     8.3178    38.6497 </r>
       <r>     6.9408     9.0142    39.2560 </r>
       <r>     7.0081     9.2178    39.8759 </r>
       <r>     7.0753     8.6071    40.4547 </r>
       <r>     7.1426     7.3625    40.9499 </r>
       <r>     7.2098     6.0756    41.3585 </r>
       <r>     7.2771     5.0822    41.7003 </r>
       <r>     7.3443     4.2167    41.9839 </r>
       <r>     7.4116     3.2161    42.2002 </r>
       <r>     7.4788     2.1743    42.3464 </r>
       <r>     7.5461     1.5085    42.4479 </r>
       <r>     7.6133     1.4151    42.5430 </r>
       <r>     7.6806     1.5256    42.6456 </r>
       <r>     7.7478     1.3514    42.7365 </r>
       <r>     7.8151     0.9153    42.7981 </r>
       <r>     7.8824     0.6660    42.8429 </r>
       <r>     7.9496     0.8683    42.9013 </r>
       <r>     8.0169     1.3003    42.9887 </r>
       <r>     8.0841     1.5331    43.0918 </r>
       <r>     8.1514     1.3957    43.1857 </r>
       <r>     8.2186     1.0973    43.2595 </r>
       <r>     8.2859     0.9282    43.3219 </r>
       <r>     8.3531     0.9751    43.3875 </r>
       <r>     8.4204     1.1352    43.4638 </r>
       <r>     8.4876     1.2593    43.5485 </r>
       <r>     8.5549     1.2599    43.6332 </r>
       <r>     8.6221     1.1675    43.7118 </r>
       <r>     8.6894     1.0901    43.7851 </r>
       <r>     8.7566     1.0901    43.8584 </r>
       <r>     8.8239     1.1245    43.9340 </r>
       <r>     8.8912     1.1206    44.0094 </r>
       <r>     8.9584     1.0885    44.0826 </r>
       <r>     9.0257     1.1171    44.1577 </r>
       <r>     9.0929     1.2399    44.2411 </r>
       <r>     9.1602     1.3443    44.3315 </r>
       <r>     9.2274     1.2858    44.4180 </r>
       <r>     9.2947     1.0823    44.4908 </r>
       <r>     9.3619     0.9165    44.5524 </r>
       <r>     9.4292     0.9395    44.6156 </r>
       <r>     9.4964     1.1182    44.6908 </r>
       <r>     9.5637     1.2748    44.7765 </r>
       <r>     9.6309     1.2647    44.8616 </r>
       <r>     9.6982     1.1224    44.9371 </r>
       <r>     9.7654     1.0214    45.0058 </r>
       <r>     9.8327     1.0804    45.0784 </r>
       <r>     9.9000     1.2241    45.1607 </r>
       <r>     9.9672     1.2693    45.2461 </r>
       <r>    10.0345     1.1376    45.3226 </r>
       <r>    10.1017     0.9365    45.3856 </r>
       <r>    10.1690     0.8368    45.4419 </r>
       <r>    10.2362     0.9158    45.5035 </r>
       <r>    10.3035     1.1058    45.5778 </r>
       <r>    10.3707     1.2574    45.6624 </r>
       <r>    10.4380     1.2634    45.7474 </r>
       <r>    10.5052     1.1393    45.8240 </r>
       <r>    10.5725     0.9862    45.8903 </r>
       <r>    10.6397     0.8955    45.9505 </r>
       <r>    10.7070     0.9004    46.0111 </r>
       <r>    10.7742     0.9801    46.0770 </r>
       <r>    10.8415     1.0759    46.1494 </r>
       <r>    10.9088     1.1071    46.2238 </r>
       <r>    10.9760     1.0302    46.2931 </r>
       <r>    11.0433     0.9077    46.3541 </r>
       <r>    11.1105     0.8584    46.4119 </r>
       <r>    11.1778     0.9125    46.4732 </r>
       <r>    11.2450     0.9788    46.5391 </r>
       <r>    11.3123     0.9822    46.6051 </r>
       <r>    11.3795     0.9583    46.6696 </r>
       <r>    11.4468     0.9644    46.7344 </r>
       <r>    11.5140     0.9745    46.8000 </r>
       <r>    11.5813     0.9274    46.8623 </r>
       <r>    11.6485     0.8302    46.9182 </r>
       <r>    11.7158     0.7561    46.9690 </r>
       <r>    11.7830     0.7547    47.0198 </r>
       <r>    11.8503     0.8160    47.0747 </r>
       <r>    11.9176     0.9039    47.1355 </r>
       <r>    11.9848     0.9588    47.1999 </r>
       <r>    12.0521     0.9108    47.2612 </r>
       <r>    12.1193     0.7798    47.3136 </r>
       <r>    12.1866     0.7057    47.3611 </r>
       <r>    12.2538     0.7845    47.4139 </r>
       <r>    12.3211     0.9186    47.4756 </r>
       <r>    12.3883     0.9319    47.5383 </r>
       <r>    12.4556     0.8030    47.5923 </r>
       <r>    12.5228     0.6692    47.6373 </r>
       <r>    12.5901     0.6202    47.6790 </r>
       <r>    12.6573     0.6120    47.7202 </r>
       <r>    12.7246     0.5816    47.7593 </r>
       <r>    12.7918     0.5326    47.7951 </r>
       <r>    12.8591     0.4833    47.8276 </r>
       <r>    12.9264     0.4202    47.8559 </r>
       <r>    12.9936     0.3400    47.8788 </r>
       <r>    13.0609     0.2697    47.8969 </r>
       <r>    13.1281     0.2229    47.9119 </r>
       <r>    13.1954     0.1972    47.9252 </r>
       <r>    13.2626     0.1980    47.9385 </r>
       <r>    13.3299     0.2099    47.9526 </r>
       <r>    13.3971     0.1870    47.9652 </r>
       <r>    13.4644     0.1210    47.9733 </r>
       <r>    13.5316     0.0684    47.9779 </r>
       <r>    13.5989     0.0728    47.9828 </r>
       <r>    13.6661     0.1027    47.9897 </r>
       <r>    13.7334     0.0998    47.9964 </r>
       <r>    13.8006     0.0564    48.0002 </r>
       <r>    13.8679     0.0113    48.0010 </r>
       <r>    13.9352    -0.0078    48.0005 </r>
       <r>    14.0024    -0.0067    48.0000 </r>
       <r>    14.0697    -0.0016    47.9999 </r>
       <r>    14.1369     0.0006    47.9999 </r>
       <r>    14.2042     0.0006    48.0000 </r>
       <r>    14.2714     0.0003    48.0000 </r>
       <r>    14.3387     0.0001    48.0000 </r>
       <r>    14.4059     0.0000    48.0000 </r>
       <r>    14.4732     0.0000    48.0000 </r>
       <r>    14.5404     0.0000    48.0000 </r>
       <r>    14.6077     0.0000    48.0000 </r>
       <r>    14.6749     0.0000    48.0000 </r>
       <r>    14.7422     0.0000    48.0000 </r>
       <r>    14.8094     0.0000    48.0000 </r>
       <r>    14.8767     0.0000    48.0000 </r>
       <r>    14.9440     0.0000    48.0000 </r>
       <r>    15.0112     0.0000    48.0000 </r>
       <r>    15.0785     0.0000    48.0000 </r>
       <r>    15.1457     0.0000    48.0000 </r>
       <r>    15.2130     0.0000    48.0000 </r>
       <r>    15.2802     0.0000    48.0000 </r>
       <r>    15.3475     0.0000    48.0000 </r>
       <r>    15.4147     0.0000    48.0000 </r>
       <r>    15.4820     0.0000    48.0000 </r>
       <r>    15.5492     0.0000    48.0000 </r>
       <r>    15.6165     0.0000    48.0000 </r>
       <r>    15.6837     0.0000    48.0000 </r>
      </set>
     </set>
    </array>
   </total>
  </dos>
 </calculation>
 <structure name="finalpos" >
  <crystal>
   <varray name="basis" >
    <v>       4.00000000       0.00000000       0.00000000 </v>
    <v>       0.00000000       4.00000000       0.00000000 </v>
    <v>       0.00000000       0.00000000       4.00000000 </v>
   </varray>
   <i name="volume">     64.00000000 </i>
   <varray name="rec_basis" >
    <v>       0.25000000       0.00000000       0.00000000 </v>
    <v>       0.00000000       0.25000000       0.00000000 </v>
    <v>       0.00000000       0.00000000       0.25000000 </v>
   </varray>
  </crystal>
  <varray name="positions" >
   <v>       0.00000000       0.00000000       0.00000000 </v>
   <v>       0.00000000       0.50000000       0.50000000 </v>
   <v>       0.50000000       0.00000000       0.50000000 </v>
   <v>       0.50000000       0.50000000       0.00000000 </v>
  </varray>
 </structure>
</modeling>
