This job started on
Tue Jan 22 15:10:22 CET 2019
 running on   16 total cores
 distrk:  each k-point on   16 cores,    1 groups
 distr:  one band on    8 cores,    2 groups
 using from now: INCAR     
 vasp.5.4.4.18Apr17-6-g9f103f2a35 (build Apr 17 2018 18:25:23) complex          
  
 POSCAR found :  1 types and       4 ions

 ----------------------------------------------------------------------------- 
|                                                                             |
|  ADVICE TO THIS USER RUNNING 'VASP/VAMP'   (HEAR YOUR MASTER'S VOICE ...):  |
|                                                                             |
|      You enforced a specific xc-type in the INCAR file,                     |
|      a different type was found on the POTCAR file                          |
|          I HOPE YOU KNOW, WHAT YOU ARE  DOING                               |
|                                                                             |
 ----------------------------------------------------------------------------- 

 LDA part: xc-table for Ceperly-Alder, standard interpolation
 POSCAR found :  1 types and       4 ions
 POSCAR, INCAR and KPOINTS ok, starting setup
 FFT: planning ...
 WAVECAR not read
 entering main loop
       N       E                     dE             d eps       ncg     rms          rms(c)
DAV:   1     0.407715073256E+03    0.40772E+03   -0.16898E+04 10600   0.145E+03
DAV:   2     0.661243157040E+01   -0.40110E+03   -0.38791E+03 10592   0.496E+02
DAV:   3    -0.239281655217E+02   -0.30541E+02   -0.29488E+02 14840   0.113E+02
DAV:   4    -0.249710685479E+02   -0.10429E+01   -0.10333E+01 11104   0.308E+01
DAV:   5    -0.250088593766E+02   -0.37791E-01   -0.37762E-01 13824   0.357E+00    0.757E+00
DAV:   6    -0.233506513468E+02    0.16582E+01   -0.53119E+00 13856   0.242E+01    0.158E+00
DAV:   7    -0.232960655502E+02    0.54586E-01   -0.23612E-01 16064   0.422E+00    0.655E-01
DAV:   8    -0.232888001486E+02    0.72654E-02   -0.12101E-02 10920   0.135E+00    0.874E-02
DAV:   9    -0.232885945300E+02    0.20562E-03   -0.14120E-03 15544   0.384E-01    0.262E-02
DAV:  10    -0.232886042814E+02   -0.97514E-05   -0.43709E-05 12576   0.457E-02    0.336E-03
DAV:  11    -0.232886055188E+02   -0.12374E-05   -0.14182E-06  8216   0.118E-02    0.550E-04
DAV:  12    -0.232886051792E+02    0.33960E-06   -0.28903E-07  5704   0.648E-03
   1 F= -.23288605E+02 E0= -.23286502E+02  d E =-.232886E+02
 curvature:   0.00 expect dE= 0.000E+00 dE for cont linesearch  0.000E+00
 trial: gam= 0.00000 g(F)=  0.176E-60 g(S)=  0.000E+00 ort = 0.000E+00 (trialstep = 0.100E+01)
 search vector abs. value=  0.100E-09
 reached required accuracy - stopping structural energy minimisation
 writing wavefunctions
This job finished on
Tue Jan 22 15:11:00 CET 2019
