<?xml version="1.0" encoding="ISO-8859-1"?>
<modeling>
 <generator>
  <i name="program" type="string">vasp </i>
  <i name="version" type="string">5.4.4.18Apr17-6-g9f103f2a35  </i>
  <i name="subversion" type="string">(build Apr 17 2018 18:25:23) complex            parallel </i>
  <i name="platform" type="string">LinuxIFC </i>
  <i name="date" type="string">2019 01 22 </i>
  <i name="time" type="string">15:10:23 </i>
 </generator>
 <incar>
  <i type="string" name="SYSTEM"> Pt bulk calculation</i>
  <i type="int" name="ISTART">     0</i>
  <i type="string" name="PREC">normal</i>
  <i type="string" name="ALGO"> NORMAL</i>
  <i type="int" name="ICHARG">     2</i>
  <i type="int" name="INIWAV">     1</i>
  <i type="int" name="NELMIN">    10</i>
  <i type="int" name="IBRION">     2</i>
  <i name="EDIFF">      0.00000100</i>
  <i name="EDIFFG">     -0.02000000</i>
  <i type="int" name="NSW">    10</i>
  <i name="ENCUT">    450.00000000</i>
  <i name="POTIM">      0.20000000</i>
  <i type="int" name="ISMEAR">     2</i>
  <i name="SIGMA">      0.20000000</i>
  <v type="int" name="KPOINT_BSE">    -1     0     0     0</v>
  <i type="string" name="GGA"> 91</i>
 </incar>
 <structure name="primitive_cell" >
  <crystal>
   <varray name="basis" >
    <v>       2.11000000       2.11000000      -0.00000000 </v>
    <v>       2.11000000       0.00000000      -2.11000000 </v>
    <v>       0.00000000       2.11000000      -2.11000000 </v>
   </varray>
   <i name="volume">     18.78786200 </i>
   <varray name="rec_basis" >
    <v>       0.23696682       0.23696682       0.23696682 </v>
    <v>       0.23696682      -0.23696682      -0.23696682 </v>
    <v>      -0.23696682       0.23696682      -0.23696682 </v>
   </varray>
  </crystal>
  <varray name="positions" >
   <v>       0.00000000       0.00000000       0.00000000 </v>
  </varray>
 </structure>
 <varray name="primitive_index" >
  <v type="int" >        1 </v>
 </varray>
 <kpoints>
  <generation param="Monkhorst-Pack">
   <v type="int" name="divisions">      20       20       20 </v>
   <v name="usershift">      0.00000000       0.00000000       0.00000000 </v>
   <v name="genvec1">      0.05000000       0.00000000       0.00000000 </v>
   <v name="genvec2">      0.00000000       0.05000000       0.00000000 </v>
   <v name="genvec3">      0.00000000       0.00000000       0.05000000 </v>
   <v name="shift">      0.50000000       0.50000000       0.50000000 </v>
  </generation>
  <varray name="kpointlist" >
   <v>       0.02500000       0.02500000       0.02500000 </v>
   <v>       0.07500000       0.02500000       0.02500000 </v>
   <v>       0.12500000       0.02500000       0.02500000 </v>
   <v>       0.17500000       0.02500000       0.02500000 </v>
   <v>       0.22500000       0.02500000       0.02500000 </v>
   <v>       0.27500000       0.02500000       0.02500000 </v>
   <v>       0.32500000       0.02500000       0.02500000 </v>
   <v>       0.37500000       0.02500000       0.02500000 </v>
   <v>       0.42500000       0.02500000       0.02500000 </v>
   <v>       0.47500000       0.02500000       0.02500000 </v>
   <v>       0.07500000       0.07500000       0.02500000 </v>
   <v>       0.12500000       0.07500000       0.02500000 </v>
   <v>       0.17500000       0.07500000       0.02500000 </v>
   <v>       0.22500000       0.07500000       0.02500000 </v>
   <v>       0.27500000       0.07500000       0.02500000 </v>
   <v>       0.32500000       0.07500000       0.02500000 </v>
   <v>       0.37500000       0.07500000       0.02500000 </v>
   <v>       0.42500000       0.07500000       0.02500000 </v>
   <v>       0.47500000       0.07500000       0.02500000 </v>
   <v>       0.12500000       0.12500000       0.02500000 </v>
   <v>       0.17500000       0.12500000       0.02500000 </v>
   <v>       0.22500000       0.12500000       0.02500000 </v>
   <v>       0.27500000       0.12500000       0.02500000 </v>
   <v>       0.32500000       0.12500000       0.02500000 </v>
   <v>       0.37500000       0.12500000       0.02500000 </v>
   <v>       0.42500000       0.12500000       0.02500000 </v>
   <v>       0.47500000       0.12500000       0.02500000 </v>
   <v>       0.17500000       0.17500000       0.02500000 </v>
   <v>       0.22500000       0.17500000       0.02500000 </v>
   <v>       0.27500000       0.17500000       0.02500000 </v>
   <v>       0.32500000       0.17500000       0.02500000 </v>
   <v>       0.37500000       0.17500000       0.02500000 </v>
   <v>       0.42500000       0.17500000       0.02500000 </v>
   <v>       0.47500000       0.17500000       0.02500000 </v>
   <v>       0.22500000       0.22500000       0.02500000 </v>
   <v>       0.27500000       0.22500000       0.02500000 </v>
   <v>       0.32500000       0.22500000       0.02500000 </v>
   <v>       0.37500000       0.22500000       0.02500000 </v>
   <v>       0.42500000       0.22500000       0.02500000 </v>
   <v>       0.47500000       0.22500000       0.02500000 </v>
   <v>       0.27500000       0.27500000       0.02500000 </v>
   <v>       0.32500000       0.27500000       0.02500000 </v>
   <v>       0.37500000       0.27500000       0.02500000 </v>
   <v>       0.42500000       0.27500000       0.02500000 </v>
   <v>       0.47500000       0.27500000       0.02500000 </v>
   <v>       0.32500000       0.32500000       0.02500000 </v>
   <v>       0.37500000       0.32500000       0.02500000 </v>
   <v>       0.42500000       0.32500000       0.02500000 </v>
   <v>       0.47500000       0.32500000       0.02500000 </v>
   <v>       0.37500000       0.37500000       0.02500000 </v>
   <v>       0.42500000       0.37500000       0.02500000 </v>
   <v>       0.47500000       0.37500000       0.02500000 </v>
   <v>       0.42500000       0.42500000       0.02500000 </v>
   <v>       0.47500000       0.42500000       0.02500000 </v>
   <v>       0.47500000       0.47500000       0.02500000 </v>
   <v>       0.07500000       0.07500000       0.07500000 </v>
   <v>       0.12500000       0.07500000       0.07500000 </v>
   <v>       0.17500000       0.07500000       0.07500000 </v>
   <v>       0.22500000       0.07500000       0.07500000 </v>
   <v>       0.27500000       0.07500000       0.07500000 </v>
   <v>       0.32500000       0.07500000       0.07500000 </v>
   <v>       0.37500000       0.07500000       0.07500000 </v>
   <v>       0.42500000       0.07500000       0.07500000 </v>
   <v>       0.47500000       0.07500000       0.07500000 </v>
   <v>       0.12500000       0.12500000       0.07500000 </v>
   <v>       0.17500000       0.12500000       0.07500000 </v>
   <v>       0.22500000       0.12500000       0.07500000 </v>
   <v>       0.27500000       0.12500000       0.07500000 </v>
   <v>       0.32500000       0.12500000       0.07500000 </v>
   <v>       0.37500000       0.12500000       0.07500000 </v>
   <v>       0.42500000       0.12500000       0.07500000 </v>
   <v>       0.47500000       0.12500000       0.07500000 </v>
   <v>       0.17500000       0.17500000       0.07500000 </v>
   <v>       0.22500000       0.17500000       0.07500000 </v>
   <v>       0.27500000       0.17500000       0.07500000 </v>
   <v>       0.32500000       0.17500000       0.07500000 </v>
   <v>       0.37500000       0.17500000       0.07500000 </v>
   <v>       0.42500000       0.17500000       0.07500000 </v>
   <v>       0.47500000       0.17500000       0.07500000 </v>
   <v>       0.22500000       0.22500000       0.07500000 </v>
   <v>       0.27500000       0.22500000       0.07500000 </v>
   <v>       0.32500000       0.22500000       0.07500000 </v>
   <v>       0.37500000       0.22500000       0.07500000 </v>
   <v>       0.42500000       0.22500000       0.07500000 </v>
   <v>       0.47500000       0.22500000       0.07500000 </v>
   <v>       0.27500000       0.27500000       0.07500000 </v>
   <v>       0.32500000       0.27500000       0.07500000 </v>
   <v>       0.37500000       0.27500000       0.07500000 </v>
   <v>       0.42500000       0.27500000       0.07500000 </v>
   <v>       0.47500000       0.27500000       0.07500000 </v>
   <v>       0.32500000       0.32500000       0.07500000 </v>
   <v>       0.37500000       0.32500000       0.07500000 </v>
   <v>       0.42500000       0.32500000       0.07500000 </v>
   <v>       0.47500000       0.32500000       0.07500000 </v>
   <v>       0.37500000       0.37500000       0.07500000 </v>
   <v>       0.42500000       0.37500000       0.07500000 </v>
   <v>       0.47500000       0.37500000       0.07500000 </v>
   <v>       0.42500000       0.42500000       0.07500000 </v>
   <v>       0.47500000       0.42500000       0.07500000 </v>
   <v>       0.47500000       0.47500000       0.07500000 </v>
   <v>       0.12500000       0.12500000       0.12500000 </v>
   <v>       0.17500000       0.12500000       0.12500000 </v>
   <v>       0.22500000       0.12500000       0.12500000 </v>
   <v>       0.27500000       0.12500000       0.12500000 </v>
   <v>       0.32500000       0.12500000       0.12500000 </v>
   <v>       0.37500000       0.12500000       0.12500000 </v>
   <v>       0.42500000       0.12500000       0.12500000 </v>
   <v>       0.47500000       0.12500000       0.12500000 </v>
   <v>       0.17500000       0.17500000       0.12500000 </v>
   <v>       0.22500000       0.17500000       0.12500000 </v>
   <v>       0.27500000       0.17500000       0.12500000 </v>
   <v>       0.32500000       0.17500000       0.12500000 </v>
   <v>       0.37500000       0.17500000       0.12500000 </v>
   <v>       0.42500000       0.17500000       0.12500000 </v>
   <v>       0.47500000       0.17500000       0.12500000 </v>
   <v>       0.22500000       0.22500000       0.12500000 </v>
   <v>       0.27500000       0.22500000       0.12500000 </v>
   <v>       0.32500000       0.22500000       0.12500000 </v>
   <v>       0.37500000       0.22500000       0.12500000 </v>
   <v>       0.42500000       0.22500000       0.12500000 </v>
   <v>       0.47500000       0.22500000       0.12500000 </v>
   <v>       0.27500000       0.27500000       0.12500000 </v>
   <v>       0.32500000       0.27500000       0.12500000 </v>
   <v>       0.37500000       0.27500000       0.12500000 </v>
   <v>       0.42500000       0.27500000       0.12500000 </v>
   <v>       0.47500000       0.27500000       0.12500000 </v>
   <v>       0.32500000       0.32500000       0.12500000 </v>
   <v>       0.37500000       0.32500000       0.12500000 </v>
   <v>       0.42500000       0.32500000       0.12500000 </v>
   <v>       0.47500000       0.32500000       0.12500000 </v>
   <v>       0.37500000       0.37500000       0.12500000 </v>
   <v>       0.42500000       0.37500000       0.12500000 </v>
   <v>       0.47500000       0.37500000       0.12500000 </v>
   <v>       0.42500000       0.42500000       0.12500000 </v>
   <v>       0.47500000       0.42500000       0.12500000 </v>
   <v>       0.47500000       0.47500000       0.12500000 </v>
   <v>       0.17500000       0.17500000       0.17500000 </v>
   <v>       0.22500000       0.17500000       0.17500000 </v>
   <v>       0.27500000       0.17500000       0.17500000 </v>
   <v>       0.32500000       0.17500000       0.17500000 </v>
   <v>       0.37500000       0.17500000       0.17500000 </v>
   <v>       0.42500000       0.17500000       0.17500000 </v>
   <v>       0.47500000       0.17500000       0.17500000 </v>
   <v>       0.22500000       0.22500000       0.17500000 </v>
   <v>       0.27500000       0.22500000       0.17500000 </v>
   <v>       0.32500000       0.22500000       0.17500000 </v>
   <v>       0.37500000       0.22500000       0.17500000 </v>
   <v>       0.42500000       0.22500000       0.17500000 </v>
   <v>       0.47500000       0.22500000       0.17500000 </v>
   <v>       0.27500000       0.27500000       0.17500000 </v>
   <v>       0.32500000       0.27500000       0.17500000 </v>
   <v>       0.37500000       0.27500000       0.17500000 </v>
   <v>       0.42500000       0.27500000       0.17500000 </v>
   <v>       0.47500000       0.27500000       0.17500000 </v>
   <v>       0.32500000       0.32500000       0.17500000 </v>
   <v>       0.37500000       0.32500000       0.17500000 </v>
   <v>       0.42500000       0.32500000       0.17500000 </v>
   <v>       0.47500000       0.32500000       0.17500000 </v>
   <v>       0.37500000       0.37500000       0.17500000 </v>
   <v>       0.42500000       0.37500000       0.17500000 </v>
   <v>       0.47500000       0.37500000       0.17500000 </v>
   <v>       0.42500000       0.42500000       0.17500000 </v>
   <v>       0.47500000       0.42500000       0.17500000 </v>
   <v>       0.47500000       0.47500000       0.17500000 </v>
   <v>       0.22500000       0.22500000       0.22500000 </v>
   <v>       0.27500000       0.22500000       0.22500000 </v>
   <v>       0.32500000       0.22500000       0.22500000 </v>
   <v>       0.37500000       0.22500000       0.22500000 </v>
   <v>       0.42500000       0.22500000       0.22500000 </v>
   <v>       0.47500000       0.22500000       0.22500000 </v>
   <v>       0.27500000       0.27500000       0.22500000 </v>
   <v>       0.32500000       0.27500000       0.22500000 </v>
   <v>       0.37500000       0.27500000       0.22500000 </v>
   <v>       0.42500000       0.27500000       0.22500000 </v>
   <v>       0.47500000       0.27500000       0.22500000 </v>
   <v>       0.32500000       0.32500000       0.22500000 </v>
   <v>       0.37500000       0.32500000       0.22500000 </v>
   <v>       0.42500000       0.32500000       0.22500000 </v>
   <v>       0.47500000       0.32500000       0.22500000 </v>
   <v>       0.37500000       0.37500000       0.22500000 </v>
   <v>       0.42500000       0.37500000       0.22500000 </v>
   <v>       0.47500000       0.37500000       0.22500000 </v>
   <v>       0.42500000       0.42500000       0.22500000 </v>
   <v>       0.47500000       0.42500000       0.22500000 </v>
   <v>       0.47500000       0.47500000       0.22500000 </v>
   <v>       0.27500000       0.27500000       0.27500000 </v>
   <v>       0.32500000       0.27500000       0.27500000 </v>
   <v>       0.37500000       0.27500000       0.27500000 </v>
   <v>       0.42500000       0.27500000       0.27500000 </v>
   <v>       0.47500000       0.27500000       0.27500000 </v>
   <v>       0.32500000       0.32500000       0.27500000 </v>
   <v>       0.37500000       0.32500000       0.27500000 </v>
   <v>       0.42500000       0.32500000       0.27500000 </v>
   <v>       0.47500000       0.32500000       0.27500000 </v>
   <v>       0.37500000       0.37500000       0.27500000 </v>
   <v>       0.42500000       0.37500000       0.27500000 </v>
   <v>       0.47500000       0.37500000       0.27500000 </v>
   <v>       0.42500000       0.42500000       0.27500000 </v>
   <v>       0.47500000       0.42500000       0.27500000 </v>
   <v>       0.47500000       0.47500000       0.27500000 </v>
   <v>       0.32500000       0.32500000       0.32500000 </v>
   <v>       0.37500000       0.32500000       0.32500000 </v>
   <v>       0.42500000       0.32500000       0.32500000 </v>
   <v>       0.47500000       0.32500000       0.32500000 </v>
   <v>       0.37500000       0.37500000       0.32500000 </v>
   <v>       0.42500000       0.37500000       0.32500000 </v>
   <v>       0.47500000       0.37500000       0.32500000 </v>
   <v>       0.42500000       0.42500000       0.32500000 </v>
   <v>       0.47500000       0.42500000       0.32500000 </v>
   <v>       0.47500000       0.47500000       0.32500000 </v>
   <v>       0.37500000       0.37500000       0.37500000 </v>
   <v>       0.42500000       0.37500000       0.37500000 </v>
   <v>       0.47500000       0.37500000       0.37500000 </v>
   <v>       0.42500000       0.42500000       0.37500000 </v>
   <v>       0.47500000       0.42500000       0.37500000 </v>
   <v>       0.47500000       0.47500000       0.37500000 </v>
   <v>       0.42500000       0.42500000       0.42500000 </v>
   <v>       0.47500000       0.42500000       0.42500000 </v>
   <v>       0.47500000       0.47500000       0.42500000 </v>
   <v>       0.47500000       0.47500000       0.47500000 </v>
  </varray>
  <varray name="weights" >
   <v>       0.00100000 </v>
   <v>       0.00300000 </v>
   <v>       0.00300000 </v>
   <v>       0.00300000 </v>
   <v>       0.00300000 </v>
   <v>       0.00300000 </v>
   <v>       0.00300000 </v>
   <v>       0.00300000 </v>
   <v>       0.00300000 </v>
   <v>       0.00300000 </v>
   <v>       0.00300000 </v>
   <v>       0.00600000 </v>
   <v>       0.00600000 </v>
   <v>       0.00600000 </v>
   <v>       0.00600000 </v>
   <v>       0.00600000 </v>
   <v>       0.00600000 </v>
   <v>       0.00600000 </v>
   <v>       0.00600000 </v>
   <v>       0.00300000 </v>
   <v>       0.00600000 </v>
   <v>       0.00600000 </v>
   <v>       0.00600000 </v>
   <v>       0.00600000 </v>
   <v>       0.00600000 </v>
   <v>       0.00600000 </v>
   <v>       0.00600000 </v>
   <v>       0.00300000 </v>
   <v>       0.00600000 </v>
   <v>       0.00600000 </v>
   <v>       0.00600000 </v>
   <v>       0.00600000 </v>
   <v>       0.00600000 </v>
   <v>       0.00600000 </v>
   <v>       0.00300000 </v>
   <v>       0.00600000 </v>
   <v>       0.00600000 </v>
   <v>       0.00600000 </v>
   <v>       0.00600000 </v>
   <v>       0.00600000 </v>
   <v>       0.00300000 </v>
   <v>       0.00600000 </v>
   <v>       0.00600000 </v>
   <v>       0.00600000 </v>
   <v>       0.00600000 </v>
   <v>       0.00300000 </v>
   <v>       0.00600000 </v>
   <v>       0.00600000 </v>
   <v>       0.00600000 </v>
   <v>       0.00300000 </v>
   <v>       0.00600000 </v>
   <v>       0.00600000 </v>
   <v>       0.00300000 </v>
   <v>       0.00600000 </v>
   <v>       0.00300000 </v>
   <v>       0.00100000 </v>
   <v>       0.00300000 </v>
   <v>       0.00300000 </v>
   <v>       0.00300000 </v>
   <v>       0.00300000 </v>
   <v>       0.00300000 </v>
   <v>       0.00300000 </v>
   <v>       0.00300000 </v>
   <v>       0.00300000 </v>
   <v>       0.00300000 </v>
   <v>       0.00600000 </v>
   <v>       0.00600000 </v>
   <v>       0.00600000 </v>
   <v>       0.00600000 </v>
   <v>       0.00600000 </v>
   <v>       0.00600000 </v>
   <v>       0.00600000 </v>
   <v>       0.00300000 </v>
   <v>       0.00600000 </v>
   <v>       0.00600000 </v>
   <v>       0.00600000 </v>
   <v>       0.00600000 </v>
   <v>       0.00600000 </v>
   <v>       0.00600000 </v>
   <v>       0.00300000 </v>
   <v>       0.00600000 </v>
   <v>       0.00600000 </v>
   <v>       0.00600000 </v>
   <v>       0.00600000 </v>
   <v>       0.00600000 </v>
   <v>       0.00300000 </v>
   <v>       0.00600000 </v>
   <v>       0.00600000 </v>
   <v>       0.00600000 </v>
   <v>       0.00600000 </v>
   <v>       0.00300000 </v>
   <v>       0.00600000 </v>
   <v>       0.00600000 </v>
   <v>       0.00600000 </v>
   <v>       0.00300000 </v>
   <v>       0.00600000 </v>
   <v>       0.00600000 </v>
   <v>       0.00300000 </v>
   <v>       0.00600000 </v>
   <v>       0.00300000 </v>
   <v>       0.00100000 </v>
   <v>       0.00300000 </v>
   <v>       0.00300000 </v>
   <v>       0.00300000 </v>
   <v>       0.00300000 </v>
   <v>       0.00300000 </v>
   <v>       0.00300000 </v>
   <v>       0.00300000 </v>
   <v>       0.00300000 </v>
   <v>       0.00600000 </v>
   <v>       0.00600000 </v>
   <v>       0.00600000 </v>
   <v>       0.00600000 </v>
   <v>       0.00600000 </v>
   <v>       0.00600000 </v>
   <v>       0.00300000 </v>
   <v>       0.00600000 </v>
   <v>       0.00600000 </v>
   <v>       0.00600000 </v>
   <v>       0.00600000 </v>
   <v>       0.00600000 </v>
   <v>       0.00300000 </v>
   <v>       0.00600000 </v>
   <v>       0.00600000 </v>
   <v>       0.00600000 </v>
   <v>       0.00600000 </v>
   <v>       0.00300000 </v>
   <v>       0.00600000 </v>
   <v>       0.00600000 </v>
   <v>       0.00600000 </v>
   <v>       0.00300000 </v>
   <v>       0.00600000 </v>
   <v>       0.00600000 </v>
   <v>       0.00300000 </v>
   <v>       0.00600000 </v>
   <v>       0.00300000 </v>
   <v>       0.00100000 </v>
   <v>       0.00300000 </v>
   <v>       0.00300000 </v>
   <v>       0.00300000 </v>
   <v>       0.00300000 </v>
   <v>       0.00300000 </v>
   <v>       0.00300000 </v>
   <v>       0.00300000 </v>
   <v>       0.00600000 </v>
   <v>       0.00600000 </v>
   <v>       0.00600000 </v>
   <v>       0.00600000 </v>
   <v>       0.00600000 </v>
   <v>       0.00300000 </v>
   <v>       0.00600000 </v>
   <v>       0.00600000 </v>
   <v>       0.00600000 </v>
   <v>       0.00600000 </v>
   <v>       0.00300000 </v>
   <v>       0.00600000 </v>
   <v>       0.00600000 </v>
   <v>       0.00600000 </v>
   <v>       0.00300000 </v>
   <v>       0.00600000 </v>
   <v>       0.00600000 </v>
   <v>       0.00300000 </v>
   <v>       0.00600000 </v>
   <v>       0.00300000 </v>
   <v>       0.00100000 </v>
   <v>       0.00300000 </v>
   <v>       0.00300000 </v>
   <v>       0.00300000 </v>
   <v>       0.00300000 </v>
   <v>       0.00300000 </v>
   <v>       0.00300000 </v>
   <v>       0.00600000 </v>
   <v>       0.00600000 </v>
   <v>       0.00600000 </v>
   <v>       0.00600000 </v>
   <v>       0.00300000 </v>
   <v>       0.00600000 </v>
   <v>       0.00600000 </v>
   <v>       0.00600000 </v>
   <v>       0.00300000 </v>
   <v>       0.00600000 </v>
   <v>       0.00600000 </v>
   <v>       0.00300000 </v>
   <v>       0.00600000 </v>
   <v>       0.00300000 </v>
   <v>       0.00100000 </v>
   <v>       0.00300000 </v>
   <v>       0.00300000 </v>
   <v>       0.00300000 </v>
   <v>       0.00300000 </v>
   <v>       0.00300000 </v>
   <v>       0.00600000 </v>
   <v>       0.00600000 </v>
   <v>       0.00600000 </v>
   <v>       0.00300000 </v>
   <v>       0.00600000 </v>
   <v>       0.00600000 </v>
   <v>       0.00300000 </v>
   <v>       0.00600000 </v>
   <v>       0.00300000 </v>
   <v>       0.00100000 </v>
   <v>       0.00300000 </v>
   <v>       0.00300000 </v>
   <v>       0.00300000 </v>
   <v>       0.00300000 </v>
   <v>       0.00600000 </v>
   <v>       0.00600000 </v>
   <v>       0.00300000 </v>
   <v>       0.00600000 </v>
   <v>       0.00300000 </v>
   <v>       0.00100000 </v>
   <v>       0.00300000 </v>
   <v>       0.00300000 </v>
   <v>       0.00300000 </v>
   <v>       0.00600000 </v>
   <v>       0.00300000 </v>
   <v>       0.00100000 </v>
   <v>       0.00300000 </v>
   <v>       0.00300000 </v>
   <v>       0.00100000 </v>
  </varray>
 </kpoints>
 <parameters>
  <separator name="general" >
   <i type="string" name="SYSTEM">Pt bulk calculation</i>
   <i type="logical" name="LCOMPAT"> F  </i>
  </separator>
  <separator name="electronic" >
   <i type="string" name="PREC">normal</i>
   <i name="ENMAX">    450.00000000</i>
   <i name="ENAUG">    358.96600000</i>
   <i name="EDIFF">      0.00000100</i>
   <i type="int" name="IALGO">    38</i>
   <i type="int" name="IWAVPR">    11</i>
   <i type="int" name="NBANDS">    24</i>
   <i name="NELECT">     40.00000000</i>
   <i type="int" name="TURBO">     0</i>
   <i type="int" name="IRESTART">     0</i>
   <i type="int" name="NREBOOT">     0</i>
   <i type="int" name="NMIN">     0</i>
   <i name="EREF">      0.00000000</i>
   <separator name="electronic smearing" >
    <i type="int" name="ISMEAR">     2</i>
    <i name="SIGMA">      0.20000000</i>
    <i name="KSPACING">      0.50000000</i>
    <i type="logical" name="KGAMMA"> T  </i>
   </separator>
   <separator name="electronic projectors" >
    <i type="logical" name="LREAL"> F  </i>
    <v name="ROPT">      0.00000000</v>
    <i type="int" name="LMAXPAW">  -100</i>
    <i type="int" name="LMAXMIX">     2</i>
    <i type="logical" name="NLSPLINE"> F  </i>
   </separator>
   <separator name="electronic startup" >
    <i type="int" name="ISTART">     0</i>
    <i type="int" name="ICHARG">     2</i>
    <i type="int" name="INIWAV">     1</i>
   </separator>
   <separator name="electronic spin" >
    <i type="int" name="ISPIN">     1</i>
    <i type="logical" name="LNONCOLLINEAR"> F  </i>
    <v name="MAGMOM">      1.00000000      1.00000000      1.00000000      1.00000000</v>
    <i name="NUPDOWN">     -1.00000000</i>
    <i type="logical" name="LSORBIT"> F  </i>
    <v name="SAXIS">      0.00000000      0.00000000      1.00000000</v>
    <i type="logical" name="LSPIRAL"> F  </i>
    <v name="QSPIRAL">      0.00000000      0.00000000      0.00000000</v>
    <i type="logical" name="LZEROZ"> F  </i>
   </separator>
   <separator name="electronic exchange-correlation" >
    <i type="logical" name="LASPH"> F  </i>
    <i type="logical" name="LMETAGGA"> F  </i>
   </separator>
   <separator name="electronic convergence" >
    <i type="int" name="NELM">    60</i>
    <i type="int" name="NELMDL">    -5</i>
    <i type="int" name="NELMIN">    10</i>
    <i name="ENINI">    450.00000000</i>
    <separator name="electronic convergence detail" >
     <i type="logical" name="LDIAG"> T  </i>
     <i type="logical" name="LSUBROT"> F  </i>
     <i name="WEIMIN">      0.00100000</i>
     <i name="EBREAK">      0.00000001</i>
     <i name="DEPER">      0.30000000</i>
     <i type="int" name="NRMM">     4</i>
     <i name="TIME">      0.40000000</i>
    </separator>
   </separator>
   <separator name="electronic mixer" >
    <i name="AMIX">      0.40000000</i>
    <i name="BMIX">      1.00000000</i>
    <i name="AMIN">      0.10000000</i>
    <i name="AMIX_MAG">      1.60000000</i>
    <i name="BMIX_MAG">      1.00000000</i>
    <separator name="electronic mixer details" >
     <i type="int" name="IMIX">     4</i>
     <i type="logical" name="MIXFIRST"> F  </i>
     <i type="int" name="MAXMIX">   -45</i>
     <i name="WC">    100.00000000</i>
     <i type="int" name="INIMIX">     1</i>
     <i type="int" name="MIXPRE">     1</i>
     <i type="int" name="MREMOVE">     5</i>
    </separator>
   </separator>
   <separator name="electronic dipolcorrection" >
    <i type="logical" name="LDIPOL"> F  </i>
    <i type="logical" name="LMONO"> F  </i>
    <i type="int" name="IDIPOL">     0</i>
    <i name="EPSILON">      1.00000000</i>
    <v name="DIPOL">   -100.00000000   -100.00000000   -100.00000000</v>
    <i name="EFIELD">      0.00000000</i>
   </separator>
  </separator>
  <separator name="grids" >
   <i type="int" name="NGX">    24</i>
   <i type="int" name="NGY">    24</i>
   <i type="int" name="NGZ">    24</i>
   <i type="int" name="NGXF">    48</i>
   <i type="int" name="NGYF">    48</i>
   <i type="int" name="NGZF">    48</i>
   <i type="logical" name="ADDGRID"> F  </i>
  </separator>
  <separator name="ionic" >
   <i type="int" name="NSW">    10</i>
   <i type="int" name="IBRION">     2</i>
   <i type="int" name="MDALGO">     0</i>
   <i type="int" name="ISIF">     2</i>
   <i name="PSTRESS">      0.00000000</i>
   <i name="EDIFFG">     -0.02000000</i>
   <i type="int" name="NFREE">     1</i>
   <i name="POTIM">      0.20000000</i>
   <i name="SMASS">     -3.00000000</i>
   <i name="SCALEE">      1.00000000</i>
  </separator>
  <separator name="ionic md" >
   <i name="TEBEG">      0.00010000</i>
   <i name="TEEND">      0.00010000</i>
   <i type="int" name="NBLOCK">     1</i>
   <i type="int" name="KBLOCK">    10</i>
   <i type="int" name="NPACO">   256</i>
   <i name="APACO">     16.00000000</i>
  </separator>
  <separator name="symmetry" >
   <i type="int" name="ISYM">     2</i>
   <i name="SYMPREC">      0.00001000</i>
  </separator>
  <separator name="dos" >
   <i type="int" name="LORBIT">     0</i>
   <v name="RWIGS">     -1.00000000</v>
   <i type="int" name="NEDOS">   301</i>
   <i name="EMIN">     10.00000000</i>
   <i name="EMAX">    -10.00000000</i>
   <i name="EFERMI">      0.00000000</i>
  </separator>
  <separator name="writing" >
   <i type="int" name="NWRITE">     2</i>
   <i type="logical" name="LWAVE"> T  </i>
   <i type="logical" name="LDOWNSAMPLE"> F  </i>
   <i type="logical" name="LCHARG"> T  </i>
   <i type="logical" name="LPARD"> F  </i>
   <i type="logical" name="LVTOT"> F  </i>
   <i type="logical" name="LVHAR"> F  </i>
   <i type="logical" name="LELF"> F  </i>
   <i type="logical" name="LOPTICS"> F  </i>
   <v name="STM">      0.00000000      0.00000000      0.00000000      0.00000000      0.00000000      0.00000000      0.00000000</v>
  </separator>
  <separator name="performance" >
   <i type="int" name="NPAR">     2</i>
   <i type="int" name="NSIM">     4</i>
   <i type="int" name="NBLK">    -1</i>
   <i type="logical" name="LPLANE"> T  </i>
   <i type="logical" name="LSCALAPACK"> F  </i>
   <i type="logical" name="LSCAAWARE"> F  </i>
   <i type="logical" name="LSCALU"> F  </i>
   <i type="logical" name="LASYNC"> F  </i>
   <i type="logical" name="LORBITALREAL"> F  </i>
  </separator>
  <separator name="miscellaneous" >
   <i type="int" name="IDIOT">     3</i>
   <i type="int" name="ISPECIAL">     0</i>
   <i type="logical" name="LMUSIC"> F  </i>
   <v name="POMASS">    195.08000000</v>
   <v name="DARWINR">      0.00000000</v>
   <v name="DARWINV">      1.00000000</v>
   <i type="logical" name="LCORR"> T  </i>
  </separator>
  <i type="logical" name="GGA_COMPAT"> T  </i>
  <i type="logical" name="LBERRY"> F  </i>
  <i type="int" name="ICORELEVEL">     0</i>
  <i type="logical" name="LDAU"> F  </i>
  <i type="int" name="I_CONSTRAINED_M">     0</i>
  <separator name="electronic exchange-correlation" >
   <i type="string" name="GGA">91</i>
   <i type="int" name="VOSKOWN">     0</i>
   <i type="logical" name="LHFCALC"> F  </i>
   <i type="string" name="PRECFOCK"></i>
   <i type="logical" name="LSYMGRAD"> F  </i>
   <i type="logical" name="LHFONE"> F  </i>
   <i type="logical" name="LRHFCALC"> F  </i>
   <i type="logical" name="LTHOMAS"> F  </i>
   <i type="logical" name="LMODELHF"> F  </i>
   <i name="ENCUT4O">     -1.00000000</i>
   <i type="int" name="EXXOEP">     0</i>
   <i type="int" name="FOURORBIT">     0</i>
   <i name="AEXX">      0.00000000</i>
   <i name="HFALPHA">      0.00000000</i>
   <i name="MCALPHA">      0.00000000</i>
   <i name="ALDAX">      1.00000000</i>
   <i name="AGGAX">      1.00000000</i>
   <i name="ALDAC">      1.00000000</i>
   <i name="AGGAC">      1.00000000</i>
   <i type="int" name="NKREDX">     1</i>
   <i type="int" name="NKREDY">     1</i>
   <i type="int" name="NKREDZ">     1</i>
   <i type="logical" name="SHIFTRED"> F  </i>
   <i type="logical" name="ODDONLY"> F  </i>
   <i type="logical" name="EVENONLY"> F  </i>
   <i type="int" name="LMAXFOCK">     0</i>
   <i type="int" name="NMAXFOCKAE">     0</i>
   <i type="logical" name="LFOCKAEDFT"> F  </i>
   <i name="HFSCREEN">      0.00000000</i>
   <i name="HFSCREENC">      0.00000000</i>
   <i type="int" name="NBANDSGWLOW">     0</i>
  </separator>
  <separator name="vdW DFT" >
   <i type="logical" name="LUSE_VDW"> F  </i>
   <i name="Zab_VDW">     -0.84910000</i>
   <i name="PARAM1">      0.12340000</i>
   <i name="PARAM2">      1.00000000</i>
   <i name="PARAM3">      0.00000000</i>
  </separator>
  <separator name="model GW" >
   <i type="int" name="MODEL_GW">     0</i>
   <i name="MODEL_EPS0">     11.27271720</i>
   <i name="MODEL_ALPHA">      1.00000000</i>
  </separator>
  <separator name="linear response parameters" >
   <i type="logical" name="LEPSILON"> F  </i>
   <i type="logical" name="LRPA"> F  </i>
   <i type="logical" name="LNABLA"> F  </i>
   <i type="logical" name="LVEL"> F  </i>
   <i type="int" name="KINTER">     0</i>
   <i name="CSHIFT">      0.10000000</i>
   <i name="OMEGAMAX">     -1.00000000</i>
   <i name="DEG_THRESHOLD">      0.00200000</i>
   <i name="RTIME">     -0.10000000</i>
   <i name="WPLASMAI">      0.00000000</i>
   <v name="DFIELD">      0.00000000      0.00000000      0.00000000</v>
   <v name="WPLASMA">      0.00000000      0.00000000      0.00000000      0.00000000      0.00000000      0.00000000      0.00000000      0.00000000      0.00000000</v>
  </separator>
  <separator name="orbital magnetization" >
   <i type="logical" name="NUCIND"> F  </i>
   <v name="MAGPOS">      0.00000000      0.00000000      0.00000000</v>
   <i type="logical" name="LNICSALL"> T  </i>
   <i type="logical" name="ORBITALMAG"> F  </i>
   <i type="logical" name="LMAGBLOCH"> F  </i>
   <i type="logical" name="LCHIMAG"> F  </i>
   <i type="logical" name="LGAUGE"> T  </i>
   <i type="int" name="MAGATOM">     0</i>
   <v name="MAGDIPOL">      0.00000000      0.00000000      0.00000000</v>
   <v name="AVECCONST">      0.00000000      0.00000000      0.00000000</v>
  </separator>
  <separator name="response functions" >
   <i type="logical" name="LADDER"> F  </i>
   <i type="logical" name="LRPAFORCE"> F  </i>
   <i type="logical" name="LFXC"> F  </i>
   <i type="logical" name="LHARTREE"> T  </i>
   <i type="int" name="IBSE">     0</i>
   <v type="int" name="KPOINT">    -1     0     0     0</v>
   <i type="logical" name="LTCTE"> F  </i>
   <i type="logical" name="LTETE"> F  </i>
   <i type="logical" name="LTRIPLET"> F  </i>
   <i type="logical" name="LFXCEPS"> F  </i>
   <i type="logical" name="LFXHEG"> F  </i>
   <i type="int" name="NATURALO">     2</i>
   <i type="logical" name="L2ORDER"> F  </i>
   <i type="logical" name="LMP2LT"> F  </i>
   <i type="logical" name="LUSEW"> F  </i>
   <i name="ENCUTGW">     -2.00000000</i>
   <i name="ENCUTGWSOFT">     -2.00000000</i>
   <i name="ENCUTLF">     -1.00000000</i>
   <i type="int" name="LMAXMP2">    -1</i>
   <i name="SCISSOR">      0.00000000</i>
   <i type="int" name="NOMEGA">     0</i>
   <i type="int" name="NOMEGAR">     0</i>
   <i type="int" name="NBANDSGW">    -1</i>
   <i type="int" name="NBANDSO">    -1</i>
   <i type="int" name="NBANDSV">    -1</i>
   <i type="int" name="NELM">     1</i>
   <i type="int" name="NELMHF">     1</i>
   <i type="int" name="DIM">     3</i>
   <i type="int" name="ANTIRES">     0</i>
   <i name="OMEGAMAX">    -30.00000000</i>
   <i name="OMEGAMIN">    -30.00000000</i>
   <i name="OMEGATL">   -200.00000000</i>
   <i type="int" name="OMEGAGRID">   140</i>
   <i name="CSHIFT">     -0.10000000</i>
   <i type="logical" name="SELFENERGY"> F  </i>
   <i type="logical" name="LSPECTRAL"> F  </i>
   <i type="logical" name="LSPECTRALGW"> F  </i>
   <i type="logical" name="LSINGLES"> F  </i>
   <i type="logical" name="LFERMIGW"> F  </i>
   <i type="logical" name="ODDONLYGW"> F  </i>
   <i type="logical" name="EVENONLYGW"> F  </i>
   <i type="int" name="NKREDLFX">     1</i>
   <i type="int" name="NKREDLFY">     1</i>
   <i type="int" name="NKREDLFZ">     1</i>
   <i type="int" name="MAXMEM">  2800</i>
   <i type="int" name="TELESCOPE">     0</i>
   <i type="int" name="TAUPAR">     1</i>
   <i type="int" name="OMEGAPAR">    -1</i>
   <i name="LAMBDA">      1.00000000</i>
  </separator>
  <separator name="External order field" >
   <i name="OFIELD_KAPPA">      0.00000000</i>
   <v name="OFIELD_K">      0.00000000      0.00000000      0.00000000</v>
   <i name="OFIELD_Q6_NEAR">      0.00000000</i>
   <i name="OFIELD_Q6_FAR">      0.00000000</i>
   <i name="OFIELD_A">      0.00000000</i>
  </separator>
 </parameters>
 <atominfo>
  <atoms>       4 </atoms>
  <types>       1 </types>
  <array name="atoms" >
   <dimension dim="1">ion</dimension>
   <field type="string">element</field>
   <field type="int">atomtype</field>
   <set>
    <rc><c>Pt</c><c>   1</c></rc>
    <rc><c>Pt</c><c>   1</c></rc>
    <rc><c>Pt</c><c>   1</c></rc>
    <rc><c>Pt</c><c>   1</c></rc>
   </set>
  </array>
  <array name="atomtypes" >
   <dimension dim="1">type</dimension>
   <field type="int">atomspertype</field>
   <field type="string">element</field>
   <field>mass</field>
   <field>valence</field>
   <field type="string">pseudopotential</field>
   <set>
    <rc><c>   4</c><c>Pt</c><c>    195.08000000</c><c>     10.00000000</c><c> PAW_PBE Pt 05Jan2001                   </c></rc>
   </set>
  </array>
 </atominfo>
 <structure name="initialpos" >
  <crystal>
   <varray name="basis" >
    <v>       4.22000000       0.00000000       0.00000000 </v>
    <v>       0.00000000       4.22000000       0.00000000 </v>
    <v>       0.00000000       0.00000000       4.22000000 </v>
   </varray>
   <i name="volume">     75.15144800 </i>
   <varray name="rec_basis" >
    <v>       0.23696682       0.00000000       0.00000000 </v>
    <v>       0.00000000       0.23696682       0.00000000 </v>
    <v>       0.00000000       0.00000000       0.23696682 </v>
   </varray>
  </crystal>
  <varray name="positions" >
   <v>       0.00000000       0.00000000       0.00000000 </v>
   <v>       0.00000000       0.50000000       0.50000000 </v>
   <v>       0.50000000       0.00000000       0.50000000 </v>
   <v>       0.50000000       0.50000000       0.00000000 </v>
  </varray>
 </structure>
 <calculation>
  <scstep>
   <time name="dav">    2.01    2.01</time>
   <time name="total">    2.03    2.13</time>
   <energy>
    <i name="alphaZ">    309.76442131 </i>
    <i name="ewald">  -3128.95918280 </i>
    <i name="hartreedc">   -368.11064614 </i>
    <i name="XCdc">     11.09184138 </i>
    <i name="pawpsdc">   2293.79710215 </i>
    <i name="pawaedc">  -2181.03440391 </i>
    <i name="eentropy">     -0.00009740 </i>
    <i name="bandstr">    555.62788817 </i>
    <i name="atom">   2915.53815049 </i>
    <i name="e_fr_energy">    407.71507326 </i>
    <i name="e_wo_entrp">    407.71517065 </i>
    <i name="e_0_energy">    407.71509760 </i>
   </energy>
  </scstep>
  <scstep>
   <time name="dav">    2.13    2.14</time>
   <time name="total">    2.15    2.15</time>
   <energy>
    <i name="e_fr_energy">      6.61243157 </i>
    <i name="e_wo_entrp">      6.61297628 </i>
    <i name="e_0_energy">      6.61256775 </i>
   </energy>
  </scstep>
  <scstep>
   <time name="dav">    2.83    2.83</time>
   <time name="total">    2.85    2.85</time>
   <energy>
    <i name="e_fr_energy">    -23.92816552 </i>
    <i name="e_wo_entrp">    -23.92112590 </i>
    <i name="e_0_energy">    -23.92640562 </i>
   </energy>
  </scstep>
  <scstep>
   <time name="dav">    2.17    2.17</time>
   <time name="total">    2.19    2.19</time>
   <energy>
    <i name="e_fr_energy">    -24.97106855 </i>
    <i name="e_wo_entrp">    -24.96296359 </i>
    <i name="e_0_energy">    -24.96904231 </i>
   </energy>
  </scstep>
  <scstep>
   <time name="dav">    2.60    2.60</time>
   <time name="total">    2.75    2.75</time>
   <energy>
    <i name="e_fr_energy">    -25.00885938 </i>
    <i name="e_wo_entrp">    -25.00075680 </i>
    <i name="e_0_energy">    -25.00683373 </i>
   </energy>
  </scstep>
  <scstep>
   <time name="dav">    2.51    2.51</time>
   <time name="total">    2.67    2.67</time>
   <energy>
    <i name="e_fr_energy">    -23.35065135 </i>
    <i name="e_wo_entrp">    -23.34238640 </i>
    <i name="e_0_energy">    -23.34858511 </i>
   </energy>
  </scstep>
  <scstep>
   <time name="dav">    2.86    2.86</time>
   <time name="total">    3.01    3.01</time>
   <energy>
    <i name="e_fr_energy">    -23.29606555 </i>
    <i name="e_wo_entrp">    -23.28763076 </i>
    <i name="e_0_energy">    -23.29395685 </i>
   </energy>
  </scstep>
  <scstep>
   <time name="dav">    2.05    2.05</time>
   <time name="total">    2.20    2.20</time>
   <energy>
    <i name="e_fr_energy">    -23.28880015 </i>
    <i name="e_wo_entrp">    -23.28042217 </i>
    <i name="e_0_energy">    -23.28670565 </i>
   </energy>
  </scstep>
  <scstep>
   <time name="dav">    2.73    2.73</time>
   <time name="total">    2.88    2.88</time>
   <energy>
    <i name="e_fr_energy">    -23.28859453 </i>
    <i name="e_wo_entrp">    -23.28017407 </i>
    <i name="e_0_energy">    -23.28648942 </i>
   </energy>
  </scstep>
  <scstep>
   <time name="dav">    2.28    2.28</time>
   <time name="total">    2.43    2.43</time>
   <energy>
    <i name="e_fr_energy">    -23.28860428 </i>
    <i name="e_wo_entrp">    -23.28019248 </i>
    <i name="e_0_energy">    -23.28650133 </i>
   </energy>
  </scstep>
  <scstep>
   <time name="dav">    1.70    1.70</time>
   <time name="total">    1.85    1.85</time>
   <energy>
    <i name="e_fr_energy">    -23.28860552 </i>
    <i name="e_wo_entrp">    -23.28019455 </i>
    <i name="e_0_energy">    -23.28650278 </i>
   </energy>
  </scstep>
  <scstep>
   <time name="dav">    1.35    1.35</time>
   <time name="total">    1.38    1.38</time>
   <energy>
    <i name="alphaZ">    309.76442131 </i>
    <i name="ewald">  -3128.95918280 </i>
    <i name="hartreedc">   -326.61648749 </i>
    <i name="XCdc">      9.36494281 </i>
    <i name="pawpsdc">   2278.55790237 </i>
    <i name="pawaedc">  -2172.33559034 </i>
    <i name="eentropy">     -0.00841112 </i>
    <i name="bandstr">     91.40564960 </i>
    <i name="atom">   2915.53815049 </i>
    <i name="e_fr_energy">    -23.28860518 </i>
    <i name="e_wo_entrp">    -23.28019406 </i>
    <i name="e_0_energy">    -23.28650240 </i>
   </energy>
  </scstep>
  <structure>
   <crystal>
    <varray name="basis" >
     <v>       4.22000000       0.00000000       0.00000000 </v>
     <v>       0.00000000       4.22000000       0.00000000 </v>
     <v>       0.00000000       0.00000000       4.22000000 </v>
    </varray>
    <i name="volume">     75.15144800 </i>
    <varray name="rec_basis" >
     <v>       0.23696682       0.00000000       0.00000000 </v>
     <v>       0.00000000       0.23696682       0.00000000 </v>
     <v>       0.00000000       0.00000000       0.23696682 </v>
    </varray>
   </crystal>
   <varray name="positions" >
    <v>       0.00000000       0.00000000       0.00000000 </v>
    <v>       0.00000000       0.50000000       0.50000000 </v>
    <v>       0.50000000       0.00000000       0.50000000 </v>
    <v>       0.50000000       0.50000000       0.00000000 </v>
   </varray>
  </structure>
  <varray name="forces" >
   <v>      -0.00000000      -0.00000000      -0.00000000 </v>
   <v>       0.00000000       0.00000000       0.00000000 </v>
   <v>       0.00000000      -0.00000000       0.00000000 </v>
   <v>      -0.00000000       0.00000000      -0.00000000 </v>
  </varray>
  <varray name="stress" >
   <v>    -257.13166415       0.00000000       0.00000000 </v>
   <v>      -0.00000000    -257.13166415      -0.00000000 </v>
   <v>      -0.00000000      -0.00000000    -257.13166415 </v>
  </varray>
  <energy>
   <i name="e_fr_energy">    -23.28860518 </i>
   <i name="e_wo_entrp">    -23.28650240 </i>
   <i name="e_0_energy">     -0.00841112 </i>
  </energy>
  <time name="totalsc">   30.54   33.81</time>
  <eigenvalues>
   <array>
    <dimension dim="1">band</dimension>
    <dimension dim="2">kpoint</dimension>
    <dimension dim="3">spin</dimension>
    <field>eigene</field>
    <field>occ</field>
    <set>
     <set comment="spin 1">
      <set comment="kpoint 1">
       <r>   -3.1004    1.0000 </r>
       <r>   -0.1440    1.0000 </r>
       <r>   -0.1440    1.0000 </r>
       <r>   -0.1440    1.0000 </r>
       <r>    0.1832    1.0000 </r>
       <r>    0.1832    1.0000 </r>
       <r>    0.1832    1.0000 </r>
       <r>    2.1710    1.0000 </r>
       <r>    2.1860    1.0000 </r>
       <r>    2.1860    1.0000 </r>
       <r>    3.6807    1.0000 </r>
       <r>    3.6807    1.0000 </r>
       <r>    4.7987    0.6273 </r>
       <r>    4.7987    0.6273 </r>
       <r>    4.7987    0.6273 </r>
       <r>    5.0661   -0.0364 </r>
       <r>    5.0661   -0.0364 </r>
       <r>    5.0661   -0.0364 </r>
       <r>    5.1287   -0.0090 </r>
       <r>    5.1287   -0.0090 </r>
       <r>    5.1287   -0.0090 </r>
       <r>    7.1176    0.0000 </r>
       <r>    7.1176    0.0000 </r>
       <r>    7.1176    0.0000 </r>
      </set>
      <set comment="kpoint 2">
       <r>   -3.0456    1.0000 </r>
       <r>   -0.1278    1.0000 </r>
       <r>   -0.1063    1.0000 </r>
       <r>   -0.1063    1.0000 </r>
       <r>    0.2038    1.0000 </r>
       <r>    0.2138    1.0000 </r>
       <r>    0.2138    1.0000 </r>
       <r>    2.1435    1.0000 </r>
       <r>    2.2089    1.0000 </r>
       <r>    2.2109    1.0000 </r>
       <r>    3.6487    1.0000 </r>
       <r>    3.6937    1.0000 </r>
       <r>    4.7470    0.8604 </r>
       <r>    4.7470    0.8604 </r>
       <r>    4.7802    0.7191 </r>
       <r>    4.8335    0.4451 </r>
       <r>    4.8335    0.4451 </r>
       <r>    5.0019   -0.0501 </r>
       <r>    5.0755   -0.0319 </r>
       <r>    5.1257   -0.0100 </r>
       <r>    5.1257   -0.0100 </r>
       <r>    6.7465    0.0000 </r>
       <r>    7.3937    0.0000 </r>
       <r>    7.3937    0.0000 </r>
      </set>
      <set comment="kpoint 3">
       <r>   -2.9368    1.0000 </r>
       <r>   -0.0982    1.0000 </r>
       <r>   -0.0321    1.0000 </r>
       <r>   -0.0321    1.0000 </r>
       <r>    0.2447    1.0000 </r>
       <r>    0.2749    1.0000 </r>
       <r>    0.2749    1.0000 </r>
       <r>    2.0855    1.0000 </r>
       <r>    2.2587    1.0000 </r>
       <r>    2.2605    1.0000 </r>
       <r>    3.5862    1.0000 </r>
       <r>    3.7194    1.0000 </r>
       <r>    4.4588    0.9967 </r>
       <r>    4.4588    0.9967 </r>
       <r>    4.6662    1.0388 </r>
       <r>    4.6662    1.0388 </r>
       <r>    4.7409    0.8824 </r>
       <r>    4.8741    0.2435 </r>
       <r>    4.9760   -0.0355 </r>
       <r>    5.1253   -0.0101 </r>
       <r>    5.1253   -0.0101 </r>
       <r>    6.1698    0.0000 </r>
       <r>    7.8276    0.0000 </r>
       <r>    7.8276    0.0000 </r>
      </set>
      <set comment="kpoint 4">
       <r>   -2.7752    1.0000 </r>
       <r>   -0.0613    1.0000 </r>
       <r>    0.0756    1.0000 </r>
       <r>    0.0756    1.0000 </r>
       <r>    0.3054    1.0000 </r>
       <r>    0.3665    1.0000 </r>
       <r>    0.3665    1.0000 </r>
       <r>    2.0013    1.0000 </r>
       <r>    2.3333    1.0000 </r>
       <r>    2.3346    1.0000 </r>
       <r>    3.4964    1.0000 </r>
       <r>    3.7574    1.0000 </r>
       <r>    4.0537    1.0000 </r>
       <r>    4.0537    1.0000 </r>
       <r>    4.5313    1.0140 </r>
       <r>    4.5313    1.0140 </r>
       <r>    4.6719    1.0338 </r>
       <r>    4.6778    1.0276 </r>
       <r>    4.8482    0.3689 </r>
       <r>    5.1253   -0.0101 </r>
       <r>    5.1253   -0.0101 </r>
       <r>    5.5400    0.0000 </r>
       <r>    8.3362    0.0000 </r>
       <r>    8.3362    0.0000 </r>
      </set>
      <set comment="kpoint 5">
       <r>   -2.5630    1.0000 </r>
       <r>   -0.0276    1.0000 </r>
       <r>    0.2122    1.0000 </r>
       <r>    0.2122    1.0000 </r>
       <r>    0.3848    1.0000 </r>
       <r>    0.4882    1.0000 </r>
       <r>    0.4882    1.0000 </r>
       <r>    1.8942    1.0000 </r>
       <r>    2.4317    1.0000 </r>
       <r>    2.4326    1.0000 </r>
       <r>    3.3840    1.0000 </r>
       <r>    3.6403    1.0000 </r>
       <r>    3.6403    1.0000 </r>
       <r>    3.8070    1.0000 </r>
       <r>    4.3616    0.9966 </r>
       <r>    4.3616    0.9966 </r>
       <r>    4.3831    0.9958 </r>
       <r>    4.5471    1.0208 </r>
       <r>    4.7289    0.9219 </r>
       <r>    4.9755   -0.0350 </r>
       <r>    5.1255   -0.0101 </r>
       <r>    5.1255   -0.0101 </r>
       <r>    8.8805    0.0000 </r>
       <r>    8.8805    0.0000 </r>
      </set>
      <set comment="kpoint 6">
       <r>   -2.3038    1.0000 </r>
       <r>   -0.0137    1.0000 </r>
       <r>    0.3705    1.0000 </r>
       <r>    0.3705    1.0000 </r>
       <r>    0.4819    1.0000 </r>
       <r>    0.6394    1.0000 </r>
       <r>    0.6394    1.0000 </r>
       <r>    1.7682    1.0000 </r>
       <r>    2.5523    1.0000 </r>
       <r>    2.5539    1.0000 </r>
       <r>    3.2352    1.0000 </r>
       <r>    3.2352    1.0000 </r>
       <r>    3.2566    1.0000 </r>
       <r>    3.8671    1.0000 </r>
       <r>    3.9579    1.0000 </r>
       <r>    4.1660    0.9999 </r>
       <r>    4.1660    0.9999 </r>
       <r>    4.3616    0.9966 </r>
       <r>    4.5675    1.0304 </r>
       <r>    4.6348    1.0515 </r>
       <r>    5.1257   -0.0100 </r>
       <r>    5.1257   -0.0100 </r>
       <r>    9.4368    0.0000 </r>
       <r>    9.4368    0.0000 </r>
      </set>
      <set comment="kpoint 7">
       <r>   -2.0027    1.0000 </r>
       <r>   -0.0434    1.0000 </r>
       <r>    0.5401    1.0000 </r>
       <r>    0.5401    1.0000 </r>
       <r>    0.5951    1.0000 </r>
       <r>    0.8193    1.0000 </r>
       <r>    0.8193    1.0000 </r>
       <r>    1.6279    1.0000 </r>
       <r>    2.6909    1.0000 </r>
       <r>    2.6975    1.0000 </r>
       <r>    2.8464    1.0000 </r>
       <r>    2.8464    1.0000 </r>
       <r>    3.1262    1.0000 </r>
       <r>    3.5006    1.0000 </r>
       <r>    3.9366    1.0000 </r>
       <r>    3.9592    1.0000 </r>
       <r>    3.9592    1.0000 </r>
       <r>    4.1452    1.0000 </r>
       <r>    4.2661    0.9992 </r>
       <r>    4.5479    1.0211 </r>
       <r>    5.1259   -0.0099 </r>
       <r>    5.1259   -0.0099 </r>
       <r>    9.9720    0.0000 </r>
       <r>    9.9720    0.0000 </r>
      </set>
      <set comment="kpoint 8">
       <r>   -1.6675    1.0000 </r>
       <r>   -0.1445    1.0000 </r>
       <r>    0.7047    1.0000 </r>
       <r>    0.7047    1.0000 </r>
       <r>    0.7225    1.0000 </r>
       <r>    1.0267    1.0000 </r>
       <r>    1.0267    1.0000 </r>
       <r>    1.4776    1.0000 </r>
       <r>    2.4784    1.0000 </r>
       <r>    2.4784    1.0000 </r>
       <r>    2.8218    1.0000 </r>
       <r>    2.8621    1.0000 </r>
       <r>    3.0292    1.0000 </r>
       <r>    3.1255    1.0000 </r>
       <r>    3.7622    1.0000 </r>
       <r>    3.7622    1.0000 </r>
       <r>    3.9168    1.0000 </r>
       <r>    4.0003    1.0000 </r>
       <r>    4.0140    1.0000 </r>
       <r>    4.4595    0.9968 </r>
       <r>    5.1261   -0.0098 </r>
       <r>    5.1261   -0.0098 </r>
       <r>   10.3734    0.0000 </r>
       <r>   10.3734    0.0000 </r>
      </set>
      <set comment="kpoint 9">
       <r>   -1.3105    1.0000 </r>
       <r>   -0.3365    1.0000 </r>
       <r>    0.8407    1.0000 </r>
       <r>    0.8407    1.0000 </r>
       <r>    0.8617    1.0000 </r>
       <r>    1.2616    1.0000 </r>
       <r>    1.2616    1.0000 </r>
       <r>    1.3217    1.0000 </r>
       <r>    2.1343    1.0000 </r>
       <r>    2.1343    1.0000 </r>
       <r>    2.8200    1.0000 </r>
       <r>    2.8813    1.0000 </r>
       <r>    3.0459    1.0000 </r>
       <r>    3.1052    1.0000 </r>
       <r>    3.6027    1.0000 </r>
       <r>    3.6027    1.0000 </r>
       <r>    3.6866    1.0000 </r>
       <r>    3.7503    1.0000 </r>
       <r>    4.0978    1.0000 </r>
       <r>    4.3689    0.9963 </r>
       <r>    5.1263   -0.0098 </r>
       <r>    5.1263   -0.0098 </r>
       <r>   10.4885    0.0000 </r>
       <r>   10.4885    0.0000 </r>
      </set>
      <set comment="kpoint 10">
       <r>   -0.9504    1.0000 </r>
       <r>   -0.6144    1.0000 </r>
       <r>    0.9196    1.0000 </r>
       <r>    0.9196    1.0000 </r>
       <r>    1.0101    1.0000 </r>
       <r>    1.1646    1.0000 </r>
       <r>    1.5242    1.0000 </r>
       <r>    1.5242    1.0000 </r>
       <r>    1.8163    1.0000 </r>
       <r>    1.8163    1.0000 </r>
       <r>    2.7653    1.0000 </r>
       <r>    2.7707    1.0000 </r>
       <r>    3.2467    1.0000 </r>
       <r>    3.2951    1.0000 </r>
       <r>    3.4616    1.0000 </r>
       <r>    3.5117    1.0000 </r>
       <r>    3.5117    1.0000 </r>
       <r>    3.5141    1.0000 </r>
       <r>    4.1862    0.9999 </r>
       <r>    4.2772    0.9991 </r>
       <r>    5.1264   -0.0098 </r>
       <r>    5.1264   -0.0098 </r>
       <r>   10.4930    0.0000 </r>
       <r>   10.4930    0.0000 </r>
      </set>
      <set comment="kpoint 11">
       <r>   -2.9913    1.0000 </r>
       <r>   -0.0898    1.0000 </r>
       <r>   -0.0898    1.0000 </r>
       <r>   -0.0717    1.0000 </r>
       <r>    0.2341    1.0000 </r>
       <r>    0.2341    1.0000 </r>
       <r>    0.2464    1.0000 </r>
       <r>    2.1282    1.0000 </r>
       <r>    2.2208    1.0000 </r>
       <r>    2.2336    1.0000 </r>
       <r>    3.6399    1.0000 </r>
       <r>    3.6856    1.0000 </r>
       <r>    4.6595    1.0436 </r>
       <r>    4.6831    1.0210 </r>
       <r>    4.6831    1.0210 </r>
       <r>    4.7052    0.9829 </r>
       <r>    4.7999    0.6213 </r>
       <r>    4.7999    0.6213 </r>
       <r>    5.0743   -0.0325 </r>
       <r>    5.0743   -0.0325 </r>
       <r>    5.0952   -0.0225 </r>
       <r>    7.0287    0.0000 </r>
       <r>    7.0287    0.0000 </r>
       <r>    7.6311    0.0000 </r>
      </set>
      <set comment="kpoint 12">
       <r>   -2.8832    1.0000 </r>
       <r>   -0.0597    1.0000 </r>
       <r>   -0.0151    1.0000 </r>
       <r>   -0.0038    1.0000 </r>
       <r>    0.2745    1.0000 </r>
       <r>    0.2947    1.0000 </r>
       <r>    0.3114    1.0000 </r>
       <r>    2.0786    1.0000 </r>
       <r>    2.2634    1.0000 </r>
       <r>    2.2799    1.0000 </r>
       <r>    3.5870    1.0000 </r>
       <r>    3.7060    1.0000 </r>
       <r>    4.3464    0.9971 </r>
       <r>    4.3520    0.9969 </r>
       <r>    4.5418    1.0184 </r>
       <r>    4.6188    1.0504 </r>
       <r>    4.6771    1.0283 </r>
       <r>    4.7415    0.8804 </r>
       <r>    4.9799   -0.0388 </r>
       <r>    5.0725   -0.0333 </r>
       <r>    5.0777   -0.0308 </r>
       <r>    6.4757    0.0000 </r>
       <r>    7.4530    0.0000 </r>
       <r>    8.0250    0.0000 </r>
      </set>
      <set comment="kpoint 13">
       <r>   -2.7228    1.0000 </r>
       <r>   -0.0220    1.0000 </r>
       <r>    0.0935    1.0000 </r>
       <r>    0.0950    1.0000 </r>
       <r>    0.3343    1.0000 </r>
       <r>    0.3854    1.0000 </r>
       <r>    0.4083    1.0000 </r>
       <r>    1.9987    1.0000 </r>
       <r>    2.3352    1.0000 </r>
       <r>    2.3486    1.0000 </r>
       <r>    3.5020    1.0000 </r>
       <r>    3.7458    1.0000 </r>
       <r>    3.9429    1.0000 </r>
       <r>    3.9815    1.0000 </r>
       <r>    4.3189    0.9981 </r>
       <r>    4.4925    1.0019 </r>
       <r>    4.5454    1.0200 </r>
       <r>    4.6491    1.0486 </r>
       <r>    4.8607    0.3065 </r>
       <r>    5.0701   -0.0345 </r>
       <r>    5.0710   -0.0341 </r>
       <r>    5.8877    0.0000 </r>
       <r>    7.9322    0.0000 </r>
       <r>    8.5040    0.0000 </r>
      </set>
      <set comment="kpoint 14">
       <r>   -2.5123    1.0000 </r>
       <r>    0.0126    1.0000 </r>
       <r>    0.2211    1.0000 </r>
       <r>    0.2312    1.0000 </r>
       <r>    0.4127    1.0000 </r>
       <r>    0.5060    1.0000 </r>
       <r>    0.5354    1.0000 </r>
       <r>    1.8949    1.0000 </r>
       <r>    2.4322    1.0000 </r>
       <r>    2.4382    1.0000 </r>
       <r>    3.3956    1.0000 </r>
       <r>    3.5339    1.0000 </r>
       <r>    3.5916    1.0000 </r>
       <r>    3.7995    1.0000 </r>
       <r>    4.0148    1.0000 </r>
       <r>    4.3308    0.9977 </r>
       <r>    4.3810    0.9959 </r>
       <r>    4.5076    1.0059 </r>
       <r>    4.7363    0.8981 </r>
       <r>    5.0666   -0.0362 </r>
       <r>    5.0698   -0.0346 </r>
       <r>    5.3576    0.0012 </r>
       <r>    8.4257    0.0000 </r>
       <r>    9.0268    0.0000 </r>
      </set>
      <set comment="kpoint 15">
       <r>   -2.2550    1.0000 </r>
       <r>    0.0274    1.0000 </r>
       <r>    0.3700    1.0000 </r>
       <r>    0.3912    1.0000 </r>
       <r>    0.5085    1.0000 </r>
       <r>    0.6559    1.0000 </r>
       <r>    0.6896    1.0000 </r>
       <r>    1.7721    1.0000 </r>
       <r>    2.5437    1.0000 </r>
       <r>    2.5533    1.0000 </r>
       <r>    3.1355    1.0000 </r>
       <r>    3.2029    1.0000 </r>
       <r>    3.2788    1.0000 </r>
       <r>    3.6483    1.0000 </r>
       <r>    3.8651    1.0000 </r>
       <r>    4.1431    1.0000 </r>
       <r>    4.1906    0.9999 </r>
       <r>    4.3215    0.9980 </r>
       <r>    4.5945    1.0427 </r>
       <r>    4.9440    0.0109 </r>
       <r>    5.0650   -0.0369 </r>
       <r>    5.0689   -0.0351 </r>
       <r>    8.9051    0.0000 </r>
       <r>    9.5647    0.0000 </r>
      </set>
      <set comment="kpoint 16">
       <r>   -1.9561    1.0000 </r>
       <r>   -0.0018    1.0000 </r>
       <r>    0.5349    1.0000 </r>
       <r>    0.5630    1.0000 </r>
       <r>    0.6200    1.0000 </r>
       <r>    0.8338    1.0000 </r>
       <r>    0.8656    1.0000 </r>
       <r>    1.6347    1.0000 </r>
       <r>    2.6542    1.0000 </r>
       <r>    2.6955    1.0000 </r>
       <r>    2.7552    1.0000 </r>
       <r>    2.8262    1.0000 </r>
       <r>    3.1723    1.0000 </r>
       <r>    3.2737    1.0000 </r>
       <r>    3.9412    1.0000 </r>
       <r>    3.9440    1.0000 </r>
       <r>    3.9875    1.0000 </r>
       <r>    4.1097    1.0000 </r>
       <r>    4.3790    0.9959 </r>
       <r>    4.6891    1.0124 </r>
       <r>    5.0645   -0.0371 </r>
       <r>    5.0681   -0.0354 </r>
       <r>    9.3396    0.0000 </r>
       <r>   10.0666    0.0000 </r>
      </set>
      <set comment="kpoint 17">
       <r>   -1.6233    1.0000 </r>
       <r>   -0.1034    1.0000 </r>
       <r>    0.7036    1.0000 </r>
       <r>    0.7306    1.0000 </r>
       <r>    0.7454    1.0000 </r>
       <r>    1.0386    1.0000 </r>
       <r>    1.0580    1.0000 </r>
       <r>    1.4874    1.0000 </r>
       <r>    2.3981    1.0000 </r>
       <r>    2.4676    1.0000 </r>
       <r>    2.7279    1.0000 </r>
       <r>    2.8577    1.0000 </r>
       <r>    2.9603    1.0000 </r>
       <r>    3.1278    1.0000 </r>
       <r>    3.7548    1.0000 </r>
       <r>    3.7915    1.0000 </r>
       <r>    3.8867    1.0000 </r>
       <r>    4.0263    1.0000 </r>
       <r>    4.1092    1.0000 </r>
       <r>    4.5434    1.0191 </r>
       <r>    5.0645   -0.0371 </r>
       <r>    5.0674   -0.0358 </r>
       <r>    9.6930    0.0000 </r>
       <r>   10.3269    0.0000 </r>
      </set>
      <set comment="kpoint 18">
       <r>   -1.2685    1.0000 </r>
       <r>   -0.2963    1.0000 </r>
       <r>    0.8522    1.0000 </r>
       <r>    0.8699    1.0000 </r>
       <r>    0.8824    1.0000 </r>
       <r>    1.2659    1.0000 </r>
       <r>    1.2696    1.0000 </r>
       <r>    1.3345    1.0000 </r>
       <r>    2.0681    1.0000 </r>
       <r>    2.1311    1.0000 </r>
       <r>    2.7148    1.0000 </r>
       <r>    2.7561    1.0000 </r>
       <r>    3.0379    1.0000 </r>
       <r>    3.2101    1.0000 </r>
       <r>    3.6037    1.0000 </r>
       <r>    3.6291    1.0000 </r>
       <r>    3.6624    1.0000 </r>
       <r>    3.8445    1.0000 </r>
       <r>    4.1188    1.0000 </r>
       <r>    4.4277    0.9951 </r>
       <r>    5.0649   -0.0369 </r>
       <r>    5.0667   -0.0361 </r>
       <r>    9.9419    0.0000 </r>
       <r>   10.2989    0.0000 </r>
      </set>
      <set comment="kpoint 19">
       <r>   -0.9101    1.0000 </r>
       <r>   -0.5748    1.0000 </r>
       <r>    0.9441    1.0000 </r>
       <r>    0.9496    1.0000 </r>
       <r>    1.0284    1.0000 </r>
       <r>    1.1802    1.0000 </r>
       <r>    1.4959    1.0000 </r>
       <r>    1.5246    1.0000 </r>
       <r>    1.7721    1.0000 </r>
       <r>    1.8211    1.0000 </r>
       <r>    2.6684    1.0000 </r>
       <r>    2.6703    1.0000 </r>
       <r>    3.2339    1.0000 </r>
       <r>    3.3833    1.0000 </r>
       <r>    3.4432    1.0000 </r>
       <r>    3.5220    1.0000 </r>
       <r>    3.5312    1.0000 </r>
       <r>    3.6002    1.0000 </r>
       <r>    4.2172    0.9997 </r>
       <r>    4.3202    0.9980 </r>
       <r>    5.0655   -0.0367 </r>
       <r>    5.0661   -0.0364 </r>
       <r>   10.1017    0.0000 </r>
       <r>   10.2120    0.0000 </r>
      </set>
      <set comment="kpoint 20">
       <r>   -2.7768    1.0000 </r>
       <r>    0.0161    1.0000 </r>
       <r>    0.0161    1.0000 </r>
       <r>    0.0524    1.0000 </r>
       <r>    0.3340    1.0000 </r>
       <r>    0.3340    1.0000 </r>
       <r>    0.3834    1.0000 </r>
       <r>    2.0477    1.0000 </r>
       <r>    2.2897    1.0000 </r>
       <r>    2.3194    1.0000 </r>
       <r>    3.5641    1.0000 </r>
       <r>    3.7049    1.0000 </r>
       <r>    4.1328    1.0000 </r>
       <r>    4.1604    0.9999 </r>
       <r>    4.1604    0.9999 </r>
       <r>    4.5349    1.0155 </r>
       <r>    4.6587    1.0441 </r>
       <r>    4.6587    1.0441 </r>
       <r>    4.9744   -0.0339 </r>
       <r>    4.9744   -0.0339 </r>
       <r>    5.0268   -0.0505 </r>
       <r>    6.9002    0.0000 </r>
       <r>    6.9002    0.0000 </r>
       <r>    8.3698    0.0000 </r>
      </set>
      <set comment="kpoint 21">
       <r>   -2.6188    1.0000 </r>
       <r>    0.0553    1.0000 </r>
       <r>    0.1263    1.0000 </r>
       <r>    0.1357    1.0000 </r>
       <r>    0.3922    1.0000 </r>
       <r>    0.4231    1.0000 </r>
       <r>    0.4884    1.0000 </r>
       <r>    1.9832    1.0000 </r>
       <r>    2.3493    1.0000 </r>
       <r>    2.3771    1.0000 </r>
       <r>    3.4989    1.0000 </r>
       <r>    3.7382    1.0000 </r>
       <r>    3.7534    1.0000 </r>
       <r>    3.8321    1.0000 </r>
       <r>    3.9143    1.0000 </r>
       <r>    4.4182    0.9951 </r>
       <r>    4.5427    1.0188 </r>
       <r>    4.5936    1.0424 </r>
       <r>    4.8461    0.3793 </r>
       <r>    4.9687   -0.0279 </r>
       <r>    4.9927   -0.0468 </r>
       <r>    6.3183    0.0000 </r>
       <r>    7.3583    0.0000 </r>
       <r>    8.8069    0.0000 </r>
      </set>
      <set comment="kpoint 22">
       <r>   -2.4114    1.0000 </r>
       <r>    0.0918    1.0000 </r>
       <r>    0.2451    1.0000 </r>
       <r>    0.2664    1.0000 </r>
       <r>    0.4684    1.0000 </r>
       <r>    0.5415    1.0000 </r>
       <r>    0.6223    1.0000 </r>
       <r>    1.8903    1.0000 </r>
       <r>    2.4397    1.0000 </r>
       <r>    2.4502    1.0000 </r>
       <r>    3.3507    1.0000 </r>
       <r>    3.4068    1.0000 </r>
       <r>    3.4906    1.0000 </r>
       <r>    3.6183    1.0000 </r>
       <r>    3.7967    1.0000 </r>
       <r>    4.2698    0.9992 </r>
       <r>    4.3921    0.9955 </r>
       <r>    4.4709    0.9981 </r>
       <r>    4.7061    0.9809 </r>
       <r>    4.9642   -0.0224 </r>
       <r>    4.9727   -0.0323 </r>
       <r>    5.7839    0.0000 </r>
       <r>    7.8176    0.0000 </r>
       <r>    9.2955    0.0000 </r>
      </set>
      <set comment="kpoint 23">
       <r>   -2.1580    1.0000 </r>
       <r>    0.1084    1.0000 </r>
       <r>    0.3789    1.0000 </r>
       <r>    0.4297    1.0000 </r>
       <r>    0.5614    1.0000 </r>
       <r>    0.6886    1.0000 </r>
       <r>    0.7786    1.0000 </r>
       <r>    1.7759    1.0000 </r>
       <r>    2.5309    1.0000 </r>
       <r>    2.5568    1.0000 </r>
       <r>    2.9632    1.0000 </r>
       <r>    3.1361    1.0000 </r>
       <r>    3.2938    1.0000 </r>
       <r>    3.3075    1.0000 </r>
       <r>    3.8725    1.0000 </r>
       <r>    4.0965    1.0000 </r>
       <r>    4.2139    0.9998 </r>
       <r>    4.2953    0.9987 </r>
       <r>    4.5544    1.0241 </r>
       <r>    4.9607   -0.0177 </r>
       <r>    4.9614   -0.0187 </r>
       <r>    5.3369    0.0017 </r>
       <r>    8.2580    0.0000 </r>
       <r>    9.7948    0.0000 </r>
      </set>
      <set comment="kpoint 24">
       <r>   -1.8636    1.0000 </r>
       <r>    0.0800    1.0000 </r>
       <r>    0.5341    1.0000 </r>
       <r>    0.6061    1.0000 </r>
       <r>    0.6696    1.0000 </r>
       <r>    0.8628    1.0000 </r>
       <r>    0.9477    1.0000 </r>
       <r>    1.6460    1.0000 </r>
       <r>    2.5970    1.0000 </r>
       <r>    2.6023    1.0000 </r>
       <r>    2.6966    1.0000 </r>
       <r>    2.7843    1.0000 </r>
       <r>    2.9805    1.0000 </r>
       <r>    3.2290    1.0000 </r>
       <r>    3.9118    1.0000 </r>
       <r>    3.9622    1.0000 </r>
       <r>    4.0205    1.0000 </r>
       <r>    4.0884    1.0000 </r>
       <r>    4.3695    0.9963 </r>
       <r>    4.9553   -0.0095 </r>
       <r>    4.9580   -0.0137 </r>
       <r>    4.9961   -0.0483 </r>
       <r>    8.6620    0.0000 </r>
       <r>   10.1420    0.0000 </r>
      </set>
      <set comment="kpoint 25">
       <r>   -1.5357    1.0000 </r>
       <r>   -0.0224    1.0000 </r>
       <r>    0.7037    1.0000 </r>
       <r>    0.7800    1.0000 </r>
       <r>    0.7910    1.0000 </r>
       <r>    1.0623    1.0000 </r>
       <r>    1.1179    1.0000 </r>
       <r>    1.5055    1.0000 </r>
       <r>    2.2571    1.0000 </r>
       <r>    2.4446    1.0000 </r>
       <r>    2.6295    1.0000 </r>
       <r>    2.7282    1.0000 </r>
       <r>    2.8568    1.0000 </r>
       <r>    3.2171    1.0000 </r>
       <r>    3.7371    1.0000 </r>
       <r>    3.8295    1.0000 </r>
       <r>    3.8688    1.0000 </r>
       <r>    4.0637    1.0000 </r>
       <r>    4.1441    1.0000 </r>
       <r>    4.7540    0.8334 </r>
       <r>    4.9523   -0.0046 </r>
       <r>    4.9557   -0.0102 </r>
       <r>    9.0146    0.0000 </r>
       <r>   10.0794    0.0000 </r>
      </set>
      <set comment="kpoint 26">
       <r>   -1.1856    1.0000 </r>
       <r>   -0.2175    1.0000 </r>
       <r>    0.8697    1.0000 </r>
       <r>    0.9235    1.0000 </r>
       <r>    0.9265    1.0000 </r>
       <r>    1.2812    1.0000 </r>
       <r>    1.2851    1.0000 </r>
       <r>    1.3590    1.0000 </r>
       <r>    1.9501    1.0000 </r>
       <r>    2.1234    1.0000 </r>
       <r>    2.5739    1.0000 </r>
       <r>    2.5967    1.0000 </r>
       <r>    3.0345    1.0000 </r>
       <r>    3.3019    1.0000 </r>
       <r>    3.6011    1.0000 </r>
       <r>    3.6480    1.0000 </r>
       <r>    3.6657    1.0000 </r>
       <r>    3.9012    1.0000 </r>
       <r>    4.1753    0.9999 </r>
       <r>    4.5754    1.0342 </r>
       <r>    4.9512   -0.0028 </r>
       <r>    4.9538   -0.0072 </r>
       <r>    9.3077    0.0000 </r>
       <r>    9.9185    0.0000 </r>
      </set>
      <set comment="kpoint 27">
       <r>   -0.8307    1.0000 </r>
       <r>   -0.4969    1.0000 </r>
       <r>    0.9891    1.0000 </r>
       <r>    1.0087    1.0000 </r>
       <r>    1.0644    1.0000 </r>
       <r>    1.2107    1.0000 </r>
       <r>    1.4489    1.0000 </r>
       <r>    1.5183    1.0000 </r>
       <r>    1.6987    1.0000 </r>
       <r>    1.8279    1.0000 </r>
       <r>    2.5214    1.0000 </r>
       <r>    2.5432    1.0000 </r>
       <r>    3.2273    1.0000 </r>
       <r>    3.4327    1.0000 </r>
       <r>    3.4619    1.0000 </r>
       <r>    3.5353    1.0000 </r>
       <r>    3.5589    1.0000 </r>
       <r>    3.6678    1.0000 </r>
       <r>    4.2964    0.9987 </r>
       <r>    4.4280    0.9951 </r>
       <r>    4.9514   -0.0030 </r>
       <r>    4.9524   -0.0047 </r>
       <r>    9.5453    0.0000 </r>
       <r>    9.7428    0.0000 </r>
      </set>
      <set comment="kpoint 28">
       <r>   -2.4644    1.0000 </r>
       <r>    0.1679    1.0000 </r>
       <r>    0.1679    1.0000 </r>
       <r>    0.2002    1.0000 </r>
       <r>    0.4789    1.0000 </r>
       <r>    0.4789    1.0000 </r>
       <r>    0.6012    1.0000 </r>
       <r>    1.9417    1.0000 </r>
       <r>    2.3909    1.0000 </r>
       <r>    2.4182    1.0000 </r>
       <r>    3.4641    1.0000 </r>
       <r>    3.5102    1.0000 </r>
       <r>    3.5102    1.0000 </r>
       <r>    3.6101    1.0000 </r>
       <r>    3.7607    1.0000 </r>
       <r>    4.3130    0.9982 </r>
       <r>    4.5002    1.0038 </r>
       <r>    4.5002    1.0038 </r>
       <r>    4.8306    0.4602 </r>
       <r>    4.8306    0.4602 </r>
       <r>    4.9238    0.0593 </r>
       <r>    6.7631    0.0000 </r>
       <r>    6.7631    0.0000 </r>
       <r>    9.2023    0.0000 </r>
      </set>
      <set comment="kpoint 29">
       <r>   -2.2618    1.0000 </r>
       <r>    0.2074    1.0000 </r>
       <r>    0.2900    1.0000 </r>
       <r>    0.3115    1.0000 </r>
       <r>    0.5518    1.0000 </r>
       <r>    0.5941    1.0000 </r>
       <r>    0.7398    1.0000 </r>
       <r>    1.8699    1.0000 </r>
       <r>    2.4658    1.0000 </r>
       <r>    2.4690    1.0000 </r>
       <r>    3.1195    1.0000 </r>
       <r>    3.2325    1.0000 </r>
       <r>    3.3352    1.0000 </r>
       <r>    3.3963    1.0000 </r>
       <r>    3.8212    1.0000 </r>
       <r>    4.1803    0.9999 </r>
       <r>    4.3700    0.9962 </r>
       <r>    4.4042    0.9952 </r>
       <r>    4.6730    1.0327 </r>
       <r>    4.8191    0.5210 </r>
       <r>    4.8736    0.2456 </r>
       <r>    6.2120    0.0000 </r>
       <r>    7.2016    0.0000 </r>
       <r>    9.6468    0.0000 </r>
      </set>
      <set comment="kpoint 30">
       <r>   -2.0144    1.0000 </r>
       <r>    0.2267    1.0000 </r>
       <r>    0.4053    1.0000 </r>
       <r>    0.4796    1.0000 </r>
       <r>    0.6406    1.0000 </r>
       <r>    0.7370    1.0000 </r>
       <r>    0.8952    1.0000 </r>
       <r>    1.7727    1.0000 </r>
       <r>    2.5198    1.0000 </r>
       <r>    2.5726    1.0000 </r>
       <r>    2.7483    1.0000 </r>
       <r>    2.9444    1.0000 </r>
       <r>    3.0314    1.0000 </r>
       <r>    3.3177    1.0000 </r>
       <r>    3.9102    1.0000 </r>
       <r>    4.0255    1.0000 </r>
       <r>    4.2100    0.9998 </r>
       <r>    4.2516    0.9994 </r>
       <r>    4.5056    1.0053 </r>
       <r>    4.8111    0.5633 </r>
       <r>    4.8404    0.4092 </r>
       <r>    5.7360    0.0000 </r>
       <r>    7.6210    0.0000 </r>
       <r>   10.0057    0.0000 </r>
      </set>
      <set comment="kpoint 31">
       <r>   -1.7269    1.0000 </r>
       <r>    0.1995    1.0000 </r>
       <r>    0.5456    1.0000 </r>
       <r>    0.6627    1.0000 </r>
       <r>    0.7436    1.0000 </r>
       <r>    0.9061    1.0000 </r>
       <r>    1.0550    1.0000 </r>
       <r>    1.6569    1.0000 </r>
       <r>    2.4005    1.0000 </r>
       <r>    2.5539    1.0000 </r>
       <r>    2.6810    1.0000 </r>
       <r>    2.7055    1.0000 </r>
       <r>    2.7177    1.0000 </r>
       <r>    3.2605    1.0000 </r>
       <r>    3.8599    1.0000 </r>
       <r>    4.0197    1.0000 </r>
       <r>    4.0317    1.0000 </r>
       <r>    4.0583    1.0000 </r>
       <r>    4.3215    0.9980 </r>
       <r>    4.8053    0.5934 </r>
       <r>    4.8195    0.5191 </r>
       <r>    5.3482    0.0014 </r>
       <r>    8.0112    0.0000 </r>
       <r>    9.8955    0.0000 </r>
      </set>
      <set comment="kpoint 32">
       <r>   -1.4065    1.0000 </r>
       <r>    0.0952    1.0000 </r>
       <r>    0.7080    1.0000 </r>
       <r>    0.8467    1.0000 </r>
       <r>    0.8589    1.0000 </r>
       <r>    1.0978    1.0000 </r>
       <r>    1.2020    1.0000 </r>
       <r>    1.5286    1.0000 </r>
       <r>    2.0811    1.0000 </r>
       <r>    2.4074    1.0000 </r>
       <r>    2.4839    1.0000 </r>
       <r>    2.5460    1.0000 </r>
       <r>    2.8606    1.0000 </r>
       <r>    3.2626    1.0000 </r>
       <r>    3.7041    1.0000 </r>
       <r>    3.8466    1.0000 </r>
       <r>    3.8511    1.0000 </r>
       <r>    4.1141    1.0000 </r>
       <r>    4.1454    1.0000 </r>
       <r>    4.8011    0.6150 </r>
       <r>    4.8070    0.5846 </r>
       <r>    5.0445   -0.0455 </r>
       <r>    8.3643    0.0000 </r>
       <r>    9.6647    0.0000 </r>
      </set>
      <set comment="kpoint 33">
       <r>   -1.0638    1.0000 </r>
       <r>   -0.1033    1.0000 </r>
       <r>    0.8842    1.0000 </r>
       <r>    0.9843    1.0000 </r>
       <r>    1.0067    1.0000 </r>
       <r>    1.3067    1.0000 </r>
       <r>    1.3174    1.0000 </r>
       <r>    1.3930    1.0000 </r>
       <r>    1.8006    1.0000 </r>
       <r>    2.1096    1.0000 </r>
       <r>    2.3814    1.0000 </r>
       <r>    2.4914    1.0000 </r>
       <r>    3.0338    1.0000 </r>
       <r>    3.3430    1.0000 </r>
       <r>    3.5872    1.0000 </r>
       <r>    3.6315    1.0000 </r>
       <r>    3.6904    1.0000 </r>
       <r>    3.8934    1.0000 </r>
       <r>    4.2851    0.9989 </r>
       <r>    4.7983    0.6297 </r>
       <r>    4.8002    0.6198 </r>
       <r>    4.8060    0.5897 </r>
       <r>    8.6769    0.0000 </r>
       <r>    9.4327    0.0000 </r>
      </set>
      <set comment="kpoint 34">
       <r>   -0.7150    1.0000 </r>
       <r>   -0.3840    1.0000 </r>
       <r>    1.0428    1.0000 </r>
       <r>    1.0948    1.0000 </r>
       <r>    1.1171    1.0000 </r>
       <r>    1.2545    1.0000 </r>
       <r>    1.4013    1.0000 </r>
       <r>    1.4766    1.0000 </r>
       <r>    1.6360    1.0000 </r>
       <r>    1.8336    1.0000 </r>
       <r>    2.3698    1.0000 </r>
       <r>    2.4193    1.0000 </r>
       <r>    3.2217    1.0000 </r>
       <r>    3.4217    1.0000 </r>
       <r>    3.4888    1.0000 </r>
       <r>    3.5398    1.0000 </r>
       <r>    3.5777    1.0000 </r>
       <r>    3.6786    1.0000 </r>
       <r>    4.4388    0.9954 </r>
       <r>    4.6096    1.0482 </r>
       <r>    4.7968    0.6371 </r>
       <r>    4.7972    0.6351 </r>
       <r>    8.9520    0.0000 </r>
       <r>    9.1993    0.0000 </r>
      </set>
      <set comment="kpoint 35">
       <r>   -2.0657    1.0000 </r>
       <r>    0.3552    1.0000 </r>
       <r>    0.3552    1.0000 </r>
       <r>    0.3589    1.0000 </r>
       <r>    0.6627    1.0000 </r>
       <r>    0.6627    1.0000 </r>
       <r>    0.8792    1.0000 </r>
       <r>    1.8250    1.0000 </r>
       <r>    2.4917    1.0000 </r>
       <r>    2.5218    1.0000 </r>
       <r>    2.8641    1.0000 </r>
       <r>    2.8641    1.0000 </r>
       <r>    3.1299    1.0000 </r>
       <r>    3.3536    1.0000 </r>
       <r>    3.8883    1.0000 </r>
       <r>    4.0656    1.0000 </r>
       <r>    4.2998    0.9986 </r>
       <r>    4.2998    0.9986 </r>
       <r>    4.6481    1.0490 </r>
       <r>    4.6481    1.0490 </r>
       <r>    4.7885    0.6788 </r>
       <r>    6.6309    0.0000 </r>
       <r>    6.6309    0.0000 </r>
       <r>    9.9563    0.0000 </r>
      </set>
      <set comment="kpoint 36">
       <r>   -1.8263    1.0000 </r>
       <r>    0.3783    1.0000 </r>
       <r>    0.4532    1.0000 </r>
       <r>    0.5289    1.0000 </r>
       <r>    0.7459    1.0000 </r>
       <r>    0.8003    1.0000 </r>
       <r>    1.0301    1.0000 </r>
       <r>    1.7538    1.0000 </r>
       <r>    2.5123    1.0000 </r>
       <r>    2.5164    1.0000 </r>
       <r>    2.6103    1.0000 </r>
       <r>    2.6106    1.0000 </r>
       <r>    2.8875    1.0000 </r>
       <r>    3.2943    1.0000 </r>
       <r>    3.9309    1.0000 </r>
       <r>    3.9935    1.0000 </r>
       <r>    4.1623    0.9999 </r>
       <r>    4.1757    0.9999 </r>
       <r>    4.4632    0.9971 </r>
       <r>    4.6320    1.0516 </r>
       <r>    4.7237    0.9370 </r>
       <r>    6.1301    0.0000 </r>
       <r>    7.0329    0.0000 </r>
       <r>    9.7900    0.0000 </r>
      </set>
      <set comment="kpoint 37">
       <r>   -1.5483    1.0000 </r>
       <r>    0.3521    1.0000 </r>
       <r>    0.5735    1.0000 </r>
       <r>    0.7198    1.0000 </r>
       <r>    0.8418    1.0000 </r>
       <r>    0.9630    1.0000 </r>
       <r>    1.1786    1.0000 </r>
       <r>    1.6606    1.0000 </r>
       <r>    2.1923    1.0000 </r>
       <r>    2.3926    1.0000 </r>
       <r>    2.5151    1.0000 </r>
       <r>    2.6238    1.0000 </r>
       <r>    2.7298    1.0000 </r>
       <r>    3.2500    1.0000 </r>
       <r>    3.7862    1.0000 </r>
       <r>    4.0030    1.0000 </r>
       <r>    4.0056    1.0000 </r>
       <r>    4.1262    1.0000 </r>
       <r>    4.2682    0.9992 </r>
       <r>    4.6219    1.0509 </r>
       <r>    4.6781    1.0272 </r>
       <r>    5.7089    0.0000 </r>
       <r>    7.4114    0.0000 </r>
       <r>    9.4904    0.0000 </r>
      </set>
      <set comment="kpoint 38">
       <r>   -1.2385    1.0000 </r>
       <r>    0.2442    1.0000 </r>
       <r>    0.7193    1.0000 </r>
       <r>    0.9161    1.0000 </r>
       <r>    0.9484    1.0000 </r>
       <r>    1.1460    1.0000 </r>
       <r>    1.3043    1.0000 </r>
       <r>    1.5517    1.0000 </r>
       <r>    1.8958    1.0000 </r>
       <r>    2.2494    1.0000 </r>
       <r>    2.3531    1.0000 </r>
       <r>    2.4807    1.0000 </r>
       <r>    2.8741    1.0000 </r>
       <r>    3.2555    1.0000 </r>
       <r>    3.6509    1.0000 </r>
       <r>    3.8091    1.0000 </r>
       <r>    3.8370    1.0000 </r>
       <r>    4.0614    1.0000 </r>
       <r>    4.2795    0.9990 </r>
       <r>    4.6156    1.0497 </r>
       <r>    4.6477    1.0491 </r>
       <r>    5.3644    0.0010 </r>
       <r>    7.7617    0.0000 </r>
       <r>    9.1988    0.0000 </r>
      </set>
      <set comment="kpoint 39">
       <r>   -0.9066    1.0000 </r>
       <r>    0.0406    1.0000 </r>
       <r>    0.8889    1.0000 </r>
       <r>    1.0636    1.0000 </r>
       <r>    1.0983    1.0000 </r>
       <r>    1.3330    1.0000 </r>
       <r>    1.3811    1.0000 </r>
       <r>    1.4328    1.0000 </r>
       <r>    1.6432    1.0000 </r>
       <r>    2.0871    1.0000 </r>
       <r>    2.2005    1.0000 </r>
       <r>    2.4061    1.0000 </r>
       <r>    3.0378    1.0000 </r>
       <r>    3.3288    1.0000 </r>
       <r>    3.5533    1.0000 </r>
       <r>    3.6052    1.0000 </r>
       <r>    3.6843    1.0000 </r>
       <r>    3.8483    1.0000 </r>
       <r>    4.4498    0.9960 </r>
       <r>    4.6127    1.0490 </r>
       <r>    4.6288    1.0516 </r>
       <r>    5.0823   -0.0286 </r>
       <r>    8.0822    0.0000 </r>
       <r>    8.9223    0.0000 </r>
      </set>
      <set comment="kpoint 40">
       <r>   -0.5669    1.0000 </r>
       <r>   -0.2411    1.0000 </r>
       <r>    1.0749    1.0000 </r>
       <r>    1.1848    1.0000 </r>
       <r>    1.2037    1.0000 </r>
       <r>    1.3091    1.0000 </r>
       <r>    1.3744    1.0000 </r>
       <r>    1.3878    1.0000 </r>
       <r>    1.6201    1.0000 </r>
       <r>    1.8361    1.0000 </r>
       <r>    2.2325    1.0000 </r>
       <r>    2.3127    1.0000 </r>
       <r>    3.2159    1.0000 </r>
       <r>    3.4057    1.0000 </r>
       <r>    3.4637    1.0000 </r>
       <r>    3.5225    1.0000 </r>
       <r>    3.5706    1.0000 </r>
       <r>    3.6431    1.0000 </r>
       <r>    4.6132    1.0491 </r>
       <r>    4.6180    1.0502 </r>
       <r>    4.6370    1.0513 </r>
       <r>    4.8448    0.3860 </r>
       <r>    8.3764    0.0000 </r>
       <r>    8.6524    0.0000 </r>
      </set>
      <set comment="kpoint 41">
       <r>   -1.5971    1.0000 </r>
       <r>    0.5244    1.0000 </r>
       <r>    0.5568    1.0000 </r>
       <r>    0.5568    1.0000 </r>
       <r>    0.8767    1.0000 </r>
       <r>    0.8767    1.0000 </r>
       <r>    1.1729    1.0000 </r>
       <r>    1.7133    1.0000 </r>
       <r>    2.2957    1.0000 </r>
       <r>    2.2957    1.0000 </r>
       <r>    2.5045    1.0000 </r>
       <r>    2.6781    1.0000 </r>
       <r>    2.7080    1.0000 </r>
       <r>    3.2481    1.0000 </r>
       <r>    3.8166    1.0000 </r>
       <r>    4.0638    1.0000 </r>
[...]
       <r>    5.4159    0.0004 </r>
       <r>    5.8354    0.0000 </r>
       <r>    5.8354    0.0000 </r>
       <r>    6.1565    0.0000 </r>
      </set>
      <set comment="kpoint 217">
       <r>   -0.5079    1.0000 </r>
       <r>   -0.3484    1.0000 </r>
       <r>   -0.3484    1.0000 </r>
       <r>   -0.3484    1.0000 </r>
       <r>    2.0632    1.0000 </r>
       <r>    2.0632    1.0000 </r>
       <r>    2.0632    1.0000 </r>
       <r>    2.1965    1.0000 </r>
       <r>    2.1965    1.0000 </r>
       <r>    2.2707    1.0000 </r>
       <r>    2.2707    1.0000 </r>
       <r>    2.2707    1.0000 </r>
       <r>    3.8985    1.0000 </r>
       <r>    3.8985    1.0000 </r>
       <r>    3.8985    1.0000 </r>
       <r>    4.2929    0.9987 </r>
       <r>    4.7021    0.9893 </r>
       <r>    4.7021    0.9893 </r>
       <r>    4.8465    0.3774 </r>
       <r>    4.8465    0.3774 </r>
       <r>    4.8465    0.3774 </r>
       <r>    6.1301    0.0000 </r>
       <r>    6.1301    0.0000 </r>
       <r>    6.1301    0.0000 </r>
      </set>
      <set comment="kpoint 218">
       <r>   -0.4819    1.0000 </r>
       <r>   -0.4286    1.0000 </r>
       <r>   -0.3773    1.0000 </r>
       <r>   -0.3773    1.0000 </r>
       <r>    2.0814    1.0000 </r>
       <r>    2.0814    1.0000 </r>
       <r>    2.1216    1.0000 </r>
       <r>    2.1665    1.0000 </r>
       <r>    2.1955    1.0000 </r>
       <r>    2.2204    1.0000 </r>
       <r>    2.2392    1.0000 </r>
       <r>    2.2392    1.0000 </r>
       <r>    4.0763    1.0000 </r>
       <r>    4.0763    1.0000 </r>
       <r>    4.1309    1.0000 </r>
       <r>    4.3262    0.9978 </r>
       <r>    4.7870    0.6859 </r>
       <r>    4.8265    0.4819 </r>
       <r>    4.8265    0.4819 </r>
       <r>    4.8359    0.4327 </r>
       <r>    5.0142   -0.0516 </r>
       <r>    5.5589    0.0000 </r>
       <r>    6.1086    0.0000 </r>
       <r>    6.1086    0.0000 </r>
      </set>
      <set comment="kpoint 219">
       <r>   -0.4759    1.0000 </r>
       <r>   -0.4410    1.0000 </r>
       <r>   -0.4410    1.0000 </r>
       <r>   -0.4238    1.0000 </r>
       <r>    2.1140    1.0000 </r>
       <r>    2.1276    1.0000 </r>
       <r>    2.1276    1.0000 </r>
       <r>    2.1597    1.0000 </r>
       <r>    2.1770    1.0000 </r>
       <r>    2.1951    1.0000 </r>
       <r>    2.1951    1.0000 </r>
       <r>    2.2015    1.0000 </r>
       <r>    4.2983    0.9986 </r>
       <r>    4.3361    0.9975 </r>
       <r>    4.3361    0.9975 </r>
       <r>    4.5074    1.0058 </r>
       <r>    4.7670    0.7793 </r>
       <r>    4.8156    0.5397 </r>
       <r>    4.8156    0.5397 </r>
       <r>    4.8161    0.5368 </r>
       <r>    5.2201    0.0049 </r>
       <r>    5.6463    0.0000 </r>
       <r>    5.6463    0.0000 </r>
       <r>    5.8540    0.0000 </r>
      </set>
      <set comment="kpoint 220">
       <r>   -0.4887    1.0000 </r>
       <r>   -0.4713    1.0000 </r>
       <r>   -0.4713    1.0000 </r>
       <r>   -0.4713    1.0000 </r>
       <r>    2.1437    1.0000 </r>
       <r>    2.1437    1.0000 </r>
       <r>    2.1437    1.0000 </r>
       <r>    2.1591    1.0000 </r>
       <r>    2.1591    1.0000 </r>
       <r>    2.1674    1.0000 </r>
       <r>    2.1674    1.0000 </r>
       <r>    2.1674    1.0000 </r>
       <r>    4.6148    1.0495 </r>
       <r>    4.6148    1.0495 </r>
       <r>    4.6148    1.0495 </r>
       <r>    4.8221    0.5052 </r>
       <r>    4.8221    0.5052 </r>
       <r>    4.8387    0.4178 </r>
       <r>    4.8387    0.4178 </r>
       <r>    4.8387    0.4178 </r>
       <r>    5.1174   -0.0131 </r>
       <r>    5.4737    0.0001 </r>
       <r>    5.4737    0.0001 </r>
       <r>    5.4737    0.0001 </r>
      </set>
     </set>
    </set>
   </array>
  </eigenvalues>
  <separator name="orbital magnetization" >
   <v name="MAGDIPOLOUT">      0.00000000      0.00000000      0.00000000</v>
  </separator>
  <dos>
   <i name="efermi">      4.82308738 </i>
   <total>
    <array>
     <dimension dim="1">gridpoints</dimension>
     <dimension dim="2">spin</dimension>
     <field>energy</field>
     <field>total</field>
     <field>integrated</field>
     <set>
      <set comment="spin 1">
       <r>    -5.1004     0.0000     0.0000 </r>
       <r>    -5.0417     0.0000     0.0000 </r>
       <r>    -4.9831     0.0000     0.0000 </r>
       <r>    -4.9244     0.0000     0.0000 </r>
       <r>    -4.8658     0.0000     0.0000 </r>
       <r>    -4.8071     0.0000     0.0000 </r>
       <r>    -4.7485     0.0000     0.0000 </r>
       <r>    -4.6898     0.0000     0.0000 </r>
       <r>    -4.6312     0.0000     0.0000 </r>
       <r>    -4.5726     0.0000     0.0000 </r>
       <r>    -4.5139     0.0000     0.0000 </r>
       <r>    -4.4553     0.0000     0.0000 </r>
       <r>    -4.3966     0.0000     0.0000 </r>
       <r>    -4.3380     0.0000     0.0000 </r>
       <r>    -4.2793     0.0000     0.0000 </r>
       <r>    -4.2207     0.0000     0.0000 </r>
       <r>    -4.1620     0.0000     0.0000 </r>
       <r>    -4.1034     0.0000     0.0000 </r>
       <r>    -4.0448     0.0000     0.0000 </r>
       <r>    -3.9861     0.0000     0.0000 </r>
       <r>    -3.9275     0.0000     0.0000 </r>
       <r>    -3.8688     0.0000     0.0000 </r>
       <r>    -3.8102     0.0000     0.0000 </r>
       <r>    -3.7515     0.0000     0.0000 </r>
       <r>    -3.6929     0.0000     0.0000 </r>
       <r>    -3.6342     0.0001     0.0000 </r>
       <r>    -3.5756     0.0002     0.0000 </r>
       <r>    -3.5170     0.0004     0.0000 </r>
       <r>    -3.4583     0.0005     0.0001 </r>
       <r>    -3.3997    -0.0000     0.0001 </r>
       <r>    -3.3410    -0.0019    -0.0000 </r>
       <r>    -3.2824    -0.0044    -0.0003 </r>
       <r>    -3.2237    -0.0041    -0.0005 </r>
       <r>    -3.1651     0.0050    -0.0002 </r>
       <r>    -3.1064     0.0277     0.0014 </r>
       <r>    -3.0478     0.0625     0.0051 </r>
       <r>    -2.9892     0.1020     0.0110 </r>
       <r>    -2.9305     0.1379     0.0191 </r>
       <r>    -2.8719     0.1669     0.0289 </r>
       <r>    -2.8132     0.1905     0.0401 </r>
       <r>    -2.7546     0.2103     0.0524 </r>
       <r>    -2.6959     0.2275     0.0657 </r>
       <r>    -2.6373     0.2447     0.0801 </r>
       <r>    -2.5786     0.2647     0.0956 </r>
       <r>    -2.5200     0.2847     0.1123 </r>
       <r>    -2.4614     0.2991     0.1299 </r>
       <r>    -2.4027     0.3095     0.1480 </r>
       <r>    -2.3441     0.3254     0.1671 </r>
       <r>    -2.2854     0.3506     0.1877 </r>
       <r>    -2.2268     0.3735     0.2096 </r>
       <r>    -2.1681     0.3825     0.2320 </r>
       <r>    -2.1095     0.3852     0.2546 </r>
       <r>    -2.0508     0.3999     0.2780 </r>
       <r>    -1.9922     0.4301     0.3033 </r>
       <r>    -1.9336     0.4604     0.3302 </r>
       <r>    -1.8749     0.4762     0.3582 </r>
       <r>    -1.8163     0.4785     0.3862 </r>
       <r>    -1.7576     0.4808     0.4144 </r>
       <r>    -1.6990     0.4986     0.4437 </r>
       <r>    -1.6403     0.5375     0.4752 </r>
       <r>    -1.5817     0.5813     0.5093 </r>
       <r>    -1.5230     0.6023     0.5446 </r>
       <r>    -1.4644     0.5948     0.5795 </r>
       <r>    -1.4058     0.5899     0.6141 </r>
       <r>    -1.3471     0.6210     0.6505 </r>
       <r>    -1.2885     0.6807     0.6904 </r>
       <r>    -1.2298     0.7296     0.7332 </r>
       <r>    -1.1712     0.7475     0.7770 </r>
       <r>    -1.1125     0.7543     0.8213 </r>
       <r>    -1.0539     0.7775     0.8669 </r>
       <r>    -0.9952     0.8200     0.9150 </r>
       <r>    -0.9366     0.8729     0.9662 </r>
       <r>    -0.8780     0.9344     1.0210 </r>
       <r>    -0.8193     0.9970     1.0794 </r>
       <r>    -0.7607     1.0430     1.1406 </r>
       <r>    -0.7020     1.0827     1.2041 </r>
       <r>    -0.6434     1.1821     1.2734 </r>
       <r>    -0.5847     1.4107     1.3561 </r>
       <r>    -0.5261     1.7580     1.4592 </r>
       <r>    -0.4674     2.1252     1.5839 </r>
       <r>    -0.4088     2.4077     1.7251 </r>
       <r>    -0.3501     2.5693     1.8757 </r>
       <r>    -0.2915     2.6466     2.0309 </r>
       <r>    -0.2329     2.7186     2.1904 </r>
       <r>    -0.1742     2.8841     2.3595 </r>
       <r>    -0.1156     3.2178     2.5482 </r>
       <r>    -0.0569     3.6992     2.7652 </r>
       <r>     0.0017     4.2045     3.0117 </r>
       <r>     0.0604     4.6218     3.2828 </r>
       <r>     0.1190     4.9681     3.5741 </r>
       <r>     0.1777     5.3534     3.8881 </r>
       <r>     0.2363     5.8402     4.2306 </r>
       <r>     0.2949     6.3710     4.6042 </r>
       <r>     0.3536     6.8208     5.0042 </r>
       <r>     0.4122     7.0921     5.4201 </r>
       <r>     0.4709     7.1665     5.8404 </r>
       <r>     0.5295     7.0915     6.2563 </r>
       <r>     0.5882     6.9384     6.6632 </r>
       <r>     0.6468     6.7695     7.0602 </r>
       <r>     0.7055     6.6218     7.4485 </r>
       <r>     0.7641     6.5014     7.8298 </r>
       <r>     0.8227     6.3889     8.2044 </r>
       <r>     0.8814     6.2438     8.5706 </r>
       <r>     0.9400     6.0123     8.9232 </r>
       <r>     0.9987     5.6614     9.2552 </r>
       <r>     1.0573     5.2314     9.5620 </r>
       <r>     1.1160     4.8748     9.8479 </r>
       <r>     1.1746     4.8164    10.1303 </r>
       <r>     1.2333     5.1822    10.4343 </r>
       <r>     1.2919     5.8372    10.7766 </r>
       <r>     1.3505     6.4779    11.1565 </r>
       <r>     1.4092     6.9152    11.5620 </r>
       <r>     1.4678     7.1943    11.9839 </r>
       <r>     1.5265     7.4367    12.4200 </r>
       <r>     1.5851     7.6718    12.8699 </r>
       <r>     1.6438     7.8609    13.3309 </r>
       <r>     1.7024     8.0038    13.8003 </r>
       <r>     1.7611     8.1421    14.2778 </r>
       <r>     1.8197     8.2736    14.7630 </r>
       <r>     1.8783     8.3481    15.2526 </r>
       <r>     1.9370     8.3842    15.7443 </r>
       <r>     1.9956     8.5081    16.2432 </r>
       <r>     2.0543     8.8060    16.7596 </r>
       <r>     2.1129     9.2013    17.2993 </r>
       <r>     2.1716     9.5714    17.8606 </r>
       <r>     2.2302     9.9667    18.4451 </r>
       <r>     2.2889    10.6212    19.0679 </r>
       <r>     2.3475    11.6737    19.7525 </r>
       <r>     2.4061    12.8533    20.5063 </r>
       <r>     2.4648    13.4945    21.2977 </r>
       <r>     2.5234    13.0109    22.0607 </r>
       <r>     2.5821    11.4497    22.7322 </r>
       <r>     2.6407     9.5246    23.2908 </r>
       <r>     2.6994     8.0336    23.7619 </r>
       <r>     2.7580     7.2670    24.1880 </r>
       <r>     2.8167     6.9681    24.5967 </r>
       <r>     2.8753     6.7457    24.9923 </r>
       <r>     2.9339     6.4417    25.3701 </r>
       <r>     2.9926     6.1600    25.7313 </r>
       <r>     3.0512     6.0689    26.0872 </r>
       <r>     3.1099     6.2354    26.4529 </r>
       <r>     3.1685     6.5971    26.8398 </r>
       <r>     3.2272     7.0191    27.2514 </r>
       <r>     3.2858     7.3938    27.6850 </r>
       <r>     3.3445     7.7343    28.1386 </r>
       <r>     3.4031     8.1430    28.6161 </r>
       <r>     3.4617     8.6352    29.1225 </r>
       <r>     3.5204     9.0165    29.6513 </r>
       <r>     3.5790     9.0134    30.1799 </r>
       <r>     3.6377     8.5570    30.6817 </r>
       <r>     3.6963     7.8925    31.1446 </r>
       <r>     3.7550     7.3635    31.5764 </r>
       <r>     3.8136     7.1058    31.9931 </r>
       <r>     3.8723     6.9997    32.4036 </r>
       <r>     3.9309     6.8882    32.8076 </r>
       <r>     3.9896     6.7477    33.2033 </r>
       <r>     4.0482     6.6274    33.5919 </r>
       <r>     4.1068     6.5304    33.9749 </r>
       <r>     4.1655     6.4387    34.3525 </r>
       <r>     4.2241     6.4072    34.7283 </r>
       <r>     4.2828     6.5221    35.1107 </r>
       <r>     4.3414     6.7579    35.5071 </r>
       <r>     4.4001     6.9782    35.9163 </r>
       <r>     4.4587     7.1425    36.3352 </r>
       <r>     4.5174     7.4510    36.7721 </r>
       <r>     4.5760     8.1965    37.2528 </r>
       <r>     4.6346     9.4515    37.8071 </r>
       <r>     4.6933    10.9019    38.4464 </r>
       <r>     4.7519    11.9563    39.1476 </r>
       <r>     4.8106    12.0587    39.8548 </r>
       <r>     4.8692    11.0570    40.5032 </r>
       <r>     4.9279     9.3407    41.0510 </r>
       <r>     4.9865     7.5147    41.4917 </r>
       <r>     5.0452     5.8858    41.8368 </r>
       <r>     5.1038     4.3695    42.0931 </r>
       <r>     5.1624     2.9028    42.2633 </r>
       <r>     5.2211     1.7461    42.3657 </r>
       <r>     5.2797     1.2246    42.4375 </r>
       <r>     5.3384     1.2779    42.5125 </r>
       <r>     5.3970     1.4626    42.5983 </r>
       <r>     5.4557     1.4257    42.6819 </r>
       <r>     5.5143     1.2339    42.7542 </r>
       <r>     5.5730     1.1715    42.8229 </r>
       <r>     5.6316     1.3225    42.9005 </r>
       <r>     5.6902     1.4827    42.9874 </r>
       <r>     5.7489     1.4548    43.0728 </r>
       <r>     5.8075     1.2941    43.1486 </r>
       <r>     5.8662     1.1993    43.2190 </r>
       <r>     5.9248     1.2443    43.2919 </r>
       <r>     5.9835     1.3196    43.3693 </r>
       <r>     6.0421     1.3213    43.4468 </r>
       <r>     6.1008     1.2917    43.5226 </r>
       <r>     6.1594     1.3254    43.6003 </r>
       <r>     6.2180     1.4072    43.6828 </r>
       <r>     6.2767     1.4217    43.7662 </r>
       <r>     6.3353     1.3132    43.8432 </r>
       <r>     6.3940     1.1730    43.9120 </r>
       <r>     6.4526     1.1385    43.9788 </r>
       <r>     6.5113     1.2335    44.0511 </r>
       <r>     6.5699     1.3490    44.1302 </r>
       <r>     6.6286     1.3769    44.2110 </r>
       <r>     6.6872     1.3207    44.2884 </r>
       <r>     6.7458     1.2603    44.3623 </r>
       <r>     6.8045     1.2488    44.4356 </r>
       <r>     6.8631     1.2767    44.5104 </r>
       <r>     6.9218     1.3111    44.5873 </r>
       <r>     6.9804     1.3295    44.6653 </r>
       <r>     7.0391     1.3145    44.7424 </r>
       <r>     7.0977     1.2521    44.8158 </r>
       <r>     7.1564     1.1631    44.8840 </r>
       <r>     7.2150     1.1183    44.9496 </r>
       <r>     7.2736     1.1822    45.0189 </r>
       <r>     7.3323     1.3306    45.0970 </r>
       <r>     7.3909     1.4506    45.1820 </r>
       <r>     7.4496     1.4402    45.2665 </r>
       <r>     7.5082     1.3049    45.3430 </r>
       <r>     7.5669     1.1500    45.4105 </r>
       <r>     7.6255     1.0798    45.4738 </r>
       <r>     7.6842     1.1113    45.5390 </r>
       <r>     7.7428     1.1800    45.6082 </r>
       <r>     7.8014     1.2144    45.6794 </r>
       <r>     7.8601     1.2040    45.7500 </r>
       <r>     7.9187     1.1996    45.8203 </r>
       <r>     7.9774     1.2420    45.8932 </r>
       <r>     8.0360     1.2940    45.9691 </r>
       <r>     8.0947     1.2672    46.0434 </r>
       <r>     8.1533     1.1327    46.1098 </r>
       <r>     8.2120     0.9865    46.1677 </r>
       <r>     8.2706     0.9697    46.2245 </r>
       <r>     8.3292     1.1093    46.2896 </r>
       <r>     8.3879     1.2687    46.3640 </r>
       <r>     8.4465     1.2842    46.4393 </r>
       <r>     8.5052     1.1358    46.5059 </r>
       <r>     8.5638     0.9614    46.5623 </r>
       <r>     8.6225     0.9129    46.6158 </r>
       <r>     8.6811     1.0138    46.6753 </r>
       <r>     8.7398     1.1515    46.7428 </r>
       <r>     8.7984     1.1976    46.8131 </r>
       <r>     8.8571     1.1278    46.8792 </r>
       <r>     8.9157     1.0268    46.9394 </r>
       <r>     8.9743     0.9892    46.9974 </r>
       <r>     9.0330     1.0299    47.0578 </r>
       <r>     9.0916     1.0890    47.1217 </r>
       <r>     9.1503     1.1092    47.1867 </r>
       <r>     9.2089     1.0892    47.2506 </r>
       <r>     9.2676     1.0639    47.3130 </r>
       <r>     9.3262     1.0533    47.3748 </r>
       <r>     9.3849     1.0436    47.4360 </r>
       <r>     9.4435     1.0086    47.4951 </r>
       <r>     9.5021     0.9390    47.5502 </r>
       <r>     9.5608     0.8523    47.6002 </r>
       <r>     9.6194     0.7744    47.6456 </r>
       <r>     9.6781     0.7118    47.6873 </r>
       <r>     9.7367     0.6485    47.7254 </r>
       <r>     9.7954     0.5754    47.7591 </r>
       <r>     9.8540     0.5132    47.7892 </r>
       <r>     9.9127     0.4885    47.8178 </r>
       <r>     9.9713     0.4928    47.8467 </r>
       <r>    10.0299     0.4824    47.8750 </r>
       <r>    10.0886     0.4241    47.8999 </r>
       <r>    10.1472     0.3297    47.9192 </r>
       <r>    10.2059     0.2431    47.9335 </r>
       <r>    10.2645     0.1983    47.9451 </r>
       <r>    10.3232     0.1939    47.9565 </r>
       <r>    10.3818     0.2031    47.9684 </r>
       <r>    10.4405     0.1996    47.9801 </r>
       <r>    10.4991     0.1706    47.9901 </r>
       <r>    10.5577     0.1184    47.9971 </r>
       <r>    10.6164     0.0585    48.0005 </r>
       <r>    10.6750     0.0124    48.0012 </r>
       <r>    10.7337    -0.0087    48.0007 </r>
       <r>    10.7923    -0.0100    48.0001 </r>
       <r>    10.8510    -0.0042    47.9999 </r>
       <r>    10.9096    -0.0001    47.9999 </r>
       <r>    10.9683     0.0011    47.9999 </r>
       <r>    11.0269     0.0008    48.0000 </r>
       <r>    11.0855     0.0003    48.0000 </r>
       <r>    11.1442     0.0001    48.0000 </r>
       <r>    11.2028     0.0000    48.0000 </r>
       <r>    11.2615     0.0000    48.0000 </r>
       <r>    11.3201     0.0000    48.0000 </r>
       <r>    11.3788     0.0000    48.0000 </r>
       <r>    11.4374     0.0000    48.0000 </r>
       <r>    11.4961     0.0000    48.0000 </r>
       <r>    11.5547     0.0000    48.0000 </r>
       <r>    11.6133     0.0000    48.0000 </r>
       <r>    11.6720     0.0000    48.0000 </r>
       <r>    11.7306     0.0000    48.0000 </r>
       <r>    11.7893     0.0000    48.0000 </r>
       <r>    11.8479     0.0000    48.0000 </r>
       <r>    11.9066     0.0000    48.0000 </r>
       <r>    11.9652     0.0000    48.0000 </r>
       <r>    12.0239     0.0000    48.0000 </r>
       <r>    12.0825     0.0000    48.0000 </r>
       <r>    12.1411     0.0000    48.0000 </r>
       <r>    12.1998     0.0000    48.0000 </r>
       <r>    12.2584     0.0000    48.0000 </r>
       <r>    12.3171     0.0000    48.0000 </r>
       <r>    12.3757     0.0000    48.0000 </r>
       <r>    12.4344     0.0000    48.0000 </r>
       <r>    12.4930     0.0000    48.0000 </r>
      </set>
     </set>
    </array>
   </total>
  </dos>
 </calculation>
 <structure name="finalpos" >
  <crystal>
   <varray name="basis" >
    <v>       4.22000000       0.00000000       0.00000000 </v>
    <v>       0.00000000       4.22000000       0.00000000 </v>
    <v>       0.00000000       0.00000000       4.22000000 </v>
   </varray>
   <i name="volume">     75.15144800 </i>
   <varray name="rec_basis" >
    <v>       0.23696682       0.00000000       0.00000000 </v>
    <v>       0.00000000       0.23696682       0.00000000 </v>
    <v>       0.00000000       0.00000000       0.23696682 </v>
   </varray>
  </crystal>
  <varray name="positions" >
   <v>       0.00000000       0.00000000       0.00000000 </v>
   <v>       0.00000000       0.50000000       0.50000000 </v>
   <v>       0.50000000       0.00000000       0.50000000 </v>
   <v>       0.50000000       0.50000000       0.00000000 </v>
  </varray>
 </structure>
</modeling>
