<?xml version="1.0" encoding="ISO-8859-1"?>
<modeling>
 <generator>
  <i name="program" type="string">vasp </i>
  <i name="version" type="string">5.4.4.18Apr17-6-g9f103f2a35  </i>
  <i name="subversion" type="string">(build Apr 17 2018 18:25:23) complex            parallel </i>
  <i name="platform" type="string">LinuxIFC </i>
  <i name="date" type="string">2019 01 22 </i>
  <i name="time" type="string">15:10:21 </i>
 </generator>
 <incar>
  <i type="string" name="SYSTEM"> Pt bulk calculation</i>
  <i type="int" name="ISTART">     0</i>
  <i type="string" name="PREC">normal</i>
  <i type="string" name="ALGO"> NORMAL</i>
  <i type="int" name="ICHARG">     2</i>
  <i type="int" name="INIWAV">     1</i>
  <i type="int" name="NELMIN">    10</i>
  <i type="int" name="IBRION">     2</i>
  <i name="EDIFF">      0.00000100</i>
  <i name="EDIFFG">     -0.02000000</i>
  <i type="int" name="NSW">    10</i>
  <i name="ENCUT">    450.00000000</i>
  <i name="POTIM">      0.20000000</i>
  <i type="int" name="ISMEAR">     2</i>
  <i name="SIGMA">      0.20000000</i>
  <v type="int" name="KPOINT_BSE">    -1     0     0     0</v>
  <i type="string" name="GGA"> 91</i>
 </incar>
 <structure name="primitive_cell" >
  <crystal>
   <varray name="basis" >
    <v>       1.99000000       1.99000000       0.00000000 </v>
    <v>       1.99000000       0.00000000      -1.99000000 </v>
    <v>       0.00000000       1.99000000      -1.99000000 </v>
   </varray>
   <i name="volume">     15.76119800 </i>
   <varray name="rec_basis" >
    <v>       0.25125628       0.25125628       0.25125628 </v>
    <v>       0.25125628      -0.25125628      -0.25125628 </v>
    <v>      -0.25125628       0.25125628      -0.25125628 </v>
   </varray>
  </crystal>
  <varray name="positions" >
   <v>       0.00000000       0.00000000       0.00000000 </v>
  </varray>
 </structure>
 <varray name="primitive_index" >
  <v type="int" >        1 </v>
 </varray>
 <kpoints>
  <generation param="Monkhorst-Pack">
   <v type="int" name="divisions">      20       20       20 </v>
   <v name="usershift">      0.00000000       0.00000000       0.00000000 </v>
   <v name="genvec1">      0.05000000       0.00000000       0.00000000 </v>
   <v name="genvec2">      0.00000000       0.05000000       0.00000000 </v>
   <v name="genvec3">      0.00000000       0.00000000       0.05000000 </v>
   <v name="shift">      0.50000000       0.50000000       0.50000000 </v>
  </generation>
  <varray name="kpointlist" >
   <v>       0.02500000       0.02500000       0.02500000 </v>
   <v>       0.07500000       0.02500000       0.02500000 </v>
   <v>       0.12500000       0.02500000       0.02500000 </v>
   <v>       0.17500000       0.02500000       0.02500000 </v>
   <v>       0.22500000       0.02500000       0.02500000 </v>
   <v>       0.27500000       0.02500000       0.02500000 </v>
   <v>       0.32500000       0.02500000       0.02500000 </v>
   <v>       0.37500000       0.02500000       0.02500000 </v>
   <v>       0.42500000       0.02500000       0.02500000 </v>
   <v>       0.47500000       0.02500000       0.02500000 </v>
   <v>       0.07500000       0.07500000       0.02500000 </v>
   <v>       0.12500000       0.07500000       0.02500000 </v>
   <v>       0.17500000       0.07500000       0.02500000 </v>
   <v>       0.22500000       0.07500000       0.02500000 </v>
   <v>       0.27500000       0.07500000       0.02500000 </v>
   <v>       0.32500000       0.07500000       0.02500000 </v>
   <v>       0.37500000       0.07500000       0.02500000 </v>
   <v>       0.42500000       0.07500000       0.02500000 </v>
   <v>       0.47500000       0.07500000       0.02500000 </v>
   <v>       0.12500000       0.12500000       0.02500000 </v>
   <v>       0.17500000       0.12500000       0.02500000 </v>
   <v>       0.22500000       0.12500000       0.02500000 </v>
   <v>       0.27500000       0.12500000       0.02500000 </v>
   <v>       0.32500000       0.12500000       0.02500000 </v>
   <v>       0.37500000       0.12500000       0.02500000 </v>
   <v>       0.42500000       0.12500000       0.02500000 </v>
   <v>       0.47500000       0.12500000       0.02500000 </v>
   <v>       0.17500000       0.17500000       0.02500000 </v>
   <v>       0.22500000       0.17500000       0.02500000 </v>
   <v>       0.27500000       0.17500000       0.02500000 </v>
   <v>       0.32500000       0.17500000       0.02500000 </v>
   <v>       0.37500000       0.17500000       0.02500000 </v>
   <v>       0.42500000       0.17500000       0.02500000 </v>
   <v>       0.47500000       0.17500000       0.02500000 </v>
   <v>       0.22500000       0.22500000       0.02500000 </v>
   <v>       0.27500000       0.22500000       0.02500000 </v>
   <v>       0.32500000       0.22500000       0.02500000 </v>
   <v>       0.37500000       0.22500000       0.02500000 </v>
   <v>       0.42500000       0.22500000       0.02500000 </v>
   <v>       0.47500000       0.22500000       0.02500000 </v>
   <v>       0.27500000       0.27500000       0.02500000 </v>
   <v>       0.32500000       0.27500000       0.02500000 </v>
   <v>       0.37500000       0.27500000       0.02500000 </v>
   <v>       0.42500000       0.27500000       0.02500000 </v>
   <v>       0.47500000       0.27500000       0.02500000 </v>
   <v>       0.32500000       0.32500000       0.02500000 </v>
   <v>       0.37500000       0.32500000       0.02500000 </v>
   <v>       0.42500000       0.32500000       0.02500000 </v>
   <v>       0.47500000       0.32500000       0.02500000 </v>
   <v>       0.37500000       0.37500000       0.02500000 </v>
   <v>       0.42500000       0.37500000       0.02500000 </v>
   <v>       0.47500000       0.37500000       0.02500000 </v>
   <v>       0.42500000       0.42500000       0.02500000 </v>
   <v>       0.47500000       0.42500000       0.02500000 </v>
   <v>       0.47500000       0.47500000       0.02500000 </v>
   <v>       0.07500000       0.07500000       0.07500000 </v>
   <v>       0.12500000       0.07500000       0.07500000 </v>
   <v>       0.17500000       0.07500000       0.07500000 </v>
   <v>       0.22500000       0.07500000       0.07500000 </v>
   <v>       0.27500000       0.07500000       0.07500000 </v>
   <v>       0.32500000       0.07500000       0.07500000 </v>
   <v>       0.37500000       0.07500000       0.07500000 </v>
   <v>       0.42500000       0.07500000       0.07500000 </v>
   <v>       0.47500000       0.07500000       0.07500000 </v>
   <v>       0.12500000       0.12500000       0.07500000 </v>
   <v>       0.17500000       0.12500000       0.07500000 </v>
   <v>       0.22500000       0.12500000       0.07500000 </v>
   <v>       0.27500000       0.12500000       0.07500000 </v>
   <v>       0.32500000       0.12500000       0.07500000 </v>
   <v>       0.37500000       0.12500000       0.07500000 </v>
   <v>       0.42500000       0.12500000       0.07500000 </v>
   <v>       0.47500000       0.12500000       0.07500000 </v>
   <v>       0.17500000       0.17500000       0.07500000 </v>
   <v>       0.22500000       0.17500000       0.07500000 </v>
   <v>       0.27500000       0.17500000       0.07500000 </v>
   <v>       0.32500000       0.17500000       0.07500000 </v>
   <v>       0.37500000       0.17500000       0.07500000 </v>
   <v>       0.42500000       0.17500000       0.07500000 </v>
   <v>       0.47500000       0.17500000       0.07500000 </v>
   <v>       0.22500000       0.22500000       0.07500000 </v>
   <v>       0.27500000       0.22500000       0.07500000 </v>
   <v>       0.32500000       0.22500000       0.07500000 </v>
   <v>       0.37500000       0.22500000       0.07500000 </v>
   <v>       0.42500000       0.22500000       0.07500000 </v>
   <v>       0.47500000       0.22500000       0.07500000 </v>
   <v>       0.27500000       0.27500000       0.07500000 </v>
   <v>       0.32500000       0.27500000       0.07500000 </v>
   <v>       0.37500000       0.27500000       0.07500000 </v>
   <v>       0.42500000       0.27500000       0.07500000 </v>
   <v>       0.47500000       0.27500000       0.07500000 </v>
   <v>       0.32500000       0.32500000       0.07500000 </v>
   <v>       0.37500000       0.32500000       0.07500000 </v>
   <v>       0.42500000       0.32500000       0.07500000 </v>
   <v>       0.47500000       0.32500000       0.07500000 </v>
   <v>       0.37500000       0.37500000       0.07500000 </v>
   <v>       0.42500000       0.37500000       0.07500000 </v>
   <v>       0.47500000       0.37500000       0.07500000 </v>
   <v>       0.42500000       0.42500000       0.07500000 </v>
   <v>       0.47500000       0.42500000       0.07500000 </v>
   <v>       0.47500000       0.47500000       0.07500000 </v>
   <v>       0.12500000       0.12500000       0.12500000 </v>
   <v>       0.17500000       0.12500000       0.12500000 </v>
   <v>       0.22500000       0.12500000       0.12500000 </v>
   <v>       0.27500000       0.12500000       0.12500000 </v>
   <v>       0.32500000       0.12500000       0.12500000 </v>
   <v>       0.37500000       0.12500000       0.12500000 </v>
   <v>       0.42500000       0.12500000       0.12500000 </v>
   <v>       0.47500000       0.12500000       0.12500000 </v>
   <v>       0.17500000       0.17500000       0.12500000 </v>
   <v>       0.22500000       0.17500000       0.12500000 </v>
   <v>       0.27500000       0.17500000       0.12500000 </v>
   <v>       0.32500000       0.17500000       0.12500000 </v>
   <v>       0.37500000       0.17500000       0.12500000 </v>
   <v>       0.42500000       0.17500000       0.12500000 </v>
   <v>       0.47500000       0.17500000       0.12500000 </v>
   <v>       0.22500000       0.22500000       0.12500000 </v>
   <v>       0.27500000       0.22500000       0.12500000 </v>
   <v>       0.32500000       0.22500000       0.12500000 </v>
   <v>       0.37500000       0.22500000       0.12500000 </v>
   <v>       0.42500000       0.22500000       0.12500000 </v>
   <v>       0.47500000       0.22500000       0.12500000 </v>
   <v>       0.27500000       0.27500000       0.12500000 </v>
   <v>       0.32500000       0.27500000       0.12500000 </v>
   <v>       0.37500000       0.27500000       0.12500000 </v>
   <v>       0.42500000       0.27500000       0.12500000 </v>
   <v>       0.47500000       0.27500000       0.12500000 </v>
   <v>       0.32500000       0.32500000       0.12500000 </v>
   <v>       0.37500000       0.32500000       0.12500000 </v>
   <v>       0.42500000       0.32500000       0.12500000 </v>
   <v>       0.47500000       0.32500000       0.12500000 </v>
   <v>       0.37500000       0.37500000       0.12500000 </v>
   <v>       0.42500000       0.37500000       0.12500000 </v>
   <v>       0.47500000       0.37500000       0.12500000 </v>
   <v>       0.42500000       0.42500000       0.12500000 </v>
   <v>       0.47500000       0.42500000       0.12500000 </v>
   <v>       0.47500000       0.47500000       0.12500000 </v>
   <v>       0.17500000       0.17500000       0.17500000 </v>
   <v>       0.22500000       0.17500000       0.17500000 </v>
   <v>       0.27500000       0.17500000       0.17500000 </v>
   <v>       0.32500000       0.17500000       0.17500000 </v>
   <v>       0.37500000       0.17500000       0.17500000 </v>
   <v>       0.42500000       0.17500000       0.17500000 </v>
   <v>       0.47500000       0.17500000       0.17500000 </v>
   <v>       0.22500000       0.22500000       0.17500000 </v>
   <v>       0.27500000       0.22500000       0.17500000 </v>
   <v>       0.32500000       0.22500000       0.17500000 </v>
   <v>       0.37500000       0.22500000       0.17500000 </v>
   <v>       0.42500000       0.22500000       0.17500000 </v>
   <v>       0.47500000       0.22500000       0.17500000 </v>
   <v>       0.27500000       0.27500000       0.17500000 </v>
   <v>       0.32500000       0.27500000       0.17500000 </v>
   <v>       0.37500000       0.27500000       0.17500000 </v>
   <v>       0.42500000       0.27500000       0.17500000 </v>
   <v>       0.47500000       0.27500000       0.17500000 </v>
   <v>       0.32500000       0.32500000       0.17500000 </v>
   <v>       0.37500000       0.32500000       0.17500000 </v>
   <v>       0.42500000       0.32500000       0.17500000 </v>
   <v>       0.47500000       0.32500000       0.17500000 </v>
   <v>       0.37500000       0.37500000       0.17500000 </v>
   <v>       0.42500000       0.37500000       0.17500000 </v>
   <v>       0.47500000       0.37500000       0.17500000 </v>
   <v>       0.42500000       0.42500000       0.17500000 </v>
   <v>       0.47500000       0.42500000       0.17500000 </v>
   <v>       0.47500000       0.47500000       0.17500000 </v>
   <v>       0.22500000       0.22500000       0.22500000 </v>
   <v>       0.27500000       0.22500000       0.22500000 </v>
   <v>       0.32500000       0.22500000       0.22500000 </v>
   <v>       0.37500000       0.22500000       0.22500000 </v>
   <v>       0.42500000       0.22500000       0.22500000 </v>
   <v>       0.47500000       0.22500000       0.22500000 </v>
   <v>       0.27500000       0.27500000       0.22500000 </v>
   <v>       0.32500000       0.27500000       0.22500000 </v>
   <v>       0.37500000       0.27500000       0.22500000 </v>
   <v>       0.42500000       0.27500000       0.22500000 </v>
   <v>       0.47500000       0.27500000       0.22500000 </v>
   <v>       0.32500000       0.32500000       0.22500000 </v>
   <v>       0.37500000       0.32500000       0.22500000 </v>
   <v>       0.42500000       0.32500000       0.22500000 </v>
   <v>       0.47500000       0.32500000       0.22500000 </v>
   <v>       0.37500000       0.37500000       0.22500000 </v>
   <v>       0.42500000       0.37500000       0.22500000 </v>
   <v>       0.47500000       0.37500000       0.22500000 </v>
   <v>       0.42500000       0.42500000       0.22500000 </v>
   <v>       0.47500000       0.42500000       0.22500000 </v>
   <v>       0.47500000       0.47500000       0.22500000 </v>
   <v>       0.27500000       0.27500000       0.27500000 </v>
   <v>       0.32500000       0.27500000       0.27500000 </v>
   <v>       0.37500000       0.27500000       0.27500000 </v>
   <v>       0.42500000       0.27500000       0.27500000 </v>
   <v>       0.47500000       0.27500000       0.27500000 </v>
   <v>       0.32500000       0.32500000       0.27500000 </v>
   <v>       0.37500000       0.32500000       0.27500000 </v>
   <v>       0.42500000       0.32500000       0.27500000 </v>
   <v>       0.47500000       0.32500000       0.27500000 </v>
   <v>       0.37500000       0.37500000       0.27500000 </v>
   <v>       0.42500000       0.37500000       0.27500000 </v>
   <v>       0.47500000       0.37500000       0.27500000 </v>
   <v>       0.42500000       0.42500000       0.27500000 </v>
   <v>       0.47500000       0.42500000       0.27500000 </v>
   <v>       0.47500000       0.47500000       0.27500000 </v>
   <v>       0.32500000       0.32500000       0.32500000 </v>
   <v>       0.37500000       0.32500000       0.32500000 </v>
   <v>       0.42500000       0.32500000       0.32500000 </v>
   <v>       0.47500000       0.32500000       0.32500000 </v>
   <v>       0.37500000       0.37500000       0.32500000 </v>
   <v>       0.42500000       0.37500000       0.32500000 </v>
   <v>       0.47500000       0.37500000       0.32500000 </v>
   <v>       0.42500000       0.42500000       0.32500000 </v>
   <v>       0.47500000       0.42500000       0.32500000 </v>
   <v>       0.47500000       0.47500000       0.32500000 </v>
   <v>       0.37500000       0.37500000       0.37500000 </v>
   <v>       0.42500000       0.37500000       0.37500000 </v>
   <v>       0.47500000       0.37500000       0.37500000 </v>
   <v>       0.42500000       0.42500000       0.37500000 </v>
   <v>       0.47500000       0.42500000       0.37500000 </v>
   <v>       0.47500000       0.47500000       0.37500000 </v>
   <v>       0.42500000       0.42500000       0.42500000 </v>
   <v>       0.47500000       0.42500000       0.42500000 </v>
   <v>       0.47500000       0.47500000       0.42500000 </v>
   <v>       0.47500000       0.47500000       0.47500000 </v>
  </varray>
  <varray name="weights" >
   <v>       0.00100000 </v>
   <v>       0.00300000 </v>
   <v>       0.00300000 </v>
   <v>       0.00300000 </v>
   <v>       0.00300000 </v>
   <v>       0.00300000 </v>
   <v>       0.00300000 </v>
   <v>       0.00300000 </v>
   <v>       0.00300000 </v>
   <v>       0.00300000 </v>
   <v>       0.00300000 </v>
   <v>       0.00600000 </v>
   <v>       0.00600000 </v>
   <v>       0.00600000 </v>
   <v>       0.00600000 </v>
   <v>       0.00600000 </v>
   <v>       0.00600000 </v>
   <v>       0.00600000 </v>
   <v>       0.00600000 </v>
   <v>       0.00300000 </v>
   <v>       0.00600000 </v>
   <v>       0.00600000 </v>
   <v>       0.00600000 </v>
   <v>       0.00600000 </v>
   <v>       0.00600000 </v>
   <v>       0.00600000 </v>
   <v>       0.00600000 </v>
   <v>       0.00300000 </v>
   <v>       0.00600000 </v>
   <v>       0.00600000 </v>
   <v>       0.00600000 </v>
   <v>       0.00600000 </v>
   <v>       0.00600000 </v>
   <v>       0.00600000 </v>
   <v>       0.00300000 </v>
   <v>       0.00600000 </v>
   <v>       0.00600000 </v>
   <v>       0.00600000 </v>
   <v>       0.00600000 </v>
   <v>       0.00600000 </v>
   <v>       0.00300000 </v>
   <v>       0.00600000 </v>
   <v>       0.00600000 </v>
   <v>       0.00600000 </v>
   <v>       0.00600000 </v>
   <v>       0.00300000 </v>
   <v>       0.00600000 </v>
   <v>       0.00600000 </v>
   <v>       0.00600000 </v>
   <v>       0.00300000 </v>
   <v>       0.00600000 </v>
   <v>       0.00600000 </v>
   <v>       0.00300000 </v>
   <v>       0.00600000 </v>
   <v>       0.00300000 </v>
   <v>       0.00100000 </v>
   <v>       0.00300000 </v>
   <v>       0.00300000 </v>
   <v>       0.00300000 </v>
   <v>       0.00300000 </v>
   <v>       0.00300000 </v>
   <v>       0.00300000 </v>
   <v>       0.00300000 </v>
   <v>       0.00300000 </v>
   <v>       0.00300000 </v>
   <v>       0.00600000 </v>
   <v>       0.00600000 </v>
   <v>       0.00600000 </v>
   <v>       0.00600000 </v>
   <v>       0.00600000 </v>
   <v>       0.00600000 </v>
   <v>       0.00600000 </v>
   <v>       0.00300000 </v>
   <v>       0.00600000 </v>
   <v>       0.00600000 </v>
   <v>       0.00600000 </v>
   <v>       0.00600000 </v>
   <v>       0.00600000 </v>
   <v>       0.00600000 </v>
   <v>       0.00300000 </v>
   <v>       0.00600000 </v>
   <v>       0.00600000 </v>
   <v>       0.00600000 </v>
   <v>       0.00600000 </v>
   <v>       0.00600000 </v>
   <v>       0.00300000 </v>
   <v>       0.00600000 </v>
   <v>       0.00600000 </v>
   <v>       0.00600000 </v>
   <v>       0.00600000 </v>
   <v>       0.00300000 </v>
   <v>       0.00600000 </v>
   <v>       0.00600000 </v>
   <v>       0.00600000 </v>
   <v>       0.00300000 </v>
   <v>       0.00600000 </v>
   <v>       0.00600000 </v>
   <v>       0.00300000 </v>
   <v>       0.00600000 </v>
   <v>       0.00300000 </v>
   <v>       0.00100000 </v>
   <v>       0.00300000 </v>
   <v>       0.00300000 </v>
   <v>       0.00300000 </v>
   <v>       0.00300000 </v>
   <v>       0.00300000 </v>
   <v>       0.00300000 </v>
   <v>       0.00300000 </v>
   <v>       0.00300000 </v>
   <v>       0.00600000 </v>
   <v>       0.00600000 </v>
   <v>       0.00600000 </v>
   <v>       0.00600000 </v>
   <v>       0.00600000 </v>
   <v>       0.00600000 </v>
   <v>       0.00300000 </v>
   <v>       0.00600000 </v>
   <v>       0.00600000 </v>
   <v>       0.00600000 </v>
   <v>       0.00600000 </v>
   <v>       0.00600000 </v>
   <v>       0.00300000 </v>
   <v>       0.00600000 </v>
   <v>       0.00600000 </v>
   <v>       0.00600000 </v>
   <v>       0.00600000 </v>
   <v>       0.00300000 </v>
   <v>       0.00600000 </v>
   <v>       0.00600000 </v>
   <v>       0.00600000 </v>
   <v>       0.00300000 </v>
   <v>       0.00600000 </v>
   <v>       0.00600000 </v>
   <v>       0.00300000 </v>
   <v>       0.00600000 </v>
   <v>       0.00300000 </v>
   <v>       0.00100000 </v>
   <v>       0.00300000 </v>
   <v>       0.00300000 </v>
   <v>       0.00300000 </v>
   <v>       0.00300000 </v>
   <v>       0.00300000 </v>
   <v>       0.00300000 </v>
   <v>       0.00300000 </v>
   <v>       0.00600000 </v>
   <v>       0.00600000 </v>
   <v>       0.00600000 </v>
   <v>       0.00600000 </v>
   <v>       0.00600000 </v>
   <v>       0.00300000 </v>
   <v>       0.00600000 </v>
   <v>       0.00600000 </v>
   <v>       0.00600000 </v>
   <v>       0.00600000 </v>
   <v>       0.00300000 </v>
   <v>       0.00600000 </v>
   <v>       0.00600000 </v>
   <v>       0.00600000 </v>
   <v>       0.00300000 </v>
   <v>       0.00600000 </v>
   <v>       0.00600000 </v>
   <v>       0.00300000 </v>
   <v>       0.00600000 </v>
   <v>       0.00300000 </v>
   <v>       0.00100000 </v>
   <v>       0.00300000 </v>
   <v>       0.00300000 </v>
   <v>       0.00300000 </v>
   <v>       0.00300000 </v>
   <v>       0.00300000 </v>
   <v>       0.00300000 </v>
   <v>       0.00600000 </v>
   <v>       0.00600000 </v>
   <v>       0.00600000 </v>
   <v>       0.00600000 </v>
   <v>       0.00300000 </v>
   <v>       0.00600000 </v>
   <v>       0.00600000 </v>
   <v>       0.00600000 </v>
   <v>       0.00300000 </v>
   <v>       0.00600000 </v>
   <v>       0.00600000 </v>
   <v>       0.00300000 </v>
   <v>       0.00600000 </v>
   <v>       0.00300000 </v>
   <v>       0.00100000 </v>
   <v>       0.00300000 </v>
   <v>       0.00300000 </v>
   <v>       0.00300000 </v>
   <v>       0.00300000 </v>
   <v>       0.00300000 </v>
   <v>       0.00600000 </v>
   <v>       0.00600000 </v>
   <v>       0.00600000 </v>
   <v>       0.00300000 </v>
   <v>       0.00600000 </v>
   <v>       0.00600000 </v>
   <v>       0.00300000 </v>
   <v>       0.00600000 </v>
   <v>       0.00300000 </v>
   <v>       0.00100000 </v>
   <v>       0.00300000 </v>
   <v>       0.00300000 </v>
   <v>       0.00300000 </v>
   <v>       0.00300000 </v>
   <v>       0.00600000 </v>
   <v>       0.00600000 </v>
   <v>       0.00300000 </v>
   <v>       0.00600000 </v>
   <v>       0.00300000 </v>
   <v>       0.00100000 </v>
   <v>       0.00300000 </v>
   <v>       0.00300000 </v>
   <v>       0.00300000 </v>
   <v>       0.00600000 </v>
   <v>       0.00300000 </v>
   <v>       0.00100000 </v>
   <v>       0.00300000 </v>
   <v>       0.00300000 </v>
   <v>       0.00100000 </v>
  </varray>
 </kpoints>
 <parameters>
  <separator name="general" >
   <i type="string" name="SYSTEM">Pt bulk calculation</i>
   <i type="logical" name="LCOMPAT"> F  </i>
  </separator>
  <separator name="electronic" >
   <i type="string" name="PREC">normal</i>
   <i name="ENMAX">    450.00000000</i>
   <i name="ENAUG">    358.96600000</i>
   <i name="EDIFF">      0.00000100</i>
   <i type="int" name="IALGO">    38</i>
   <i type="int" name="IWAVPR">    11</i>
   <i type="int" name="NBANDS">    24</i>
   <i name="NELECT">     40.00000000</i>
   <i type="int" name="TURBO">     0</i>
   <i type="int" name="IRESTART">     0</i>
   <i type="int" name="NREBOOT">     0</i>
   <i type="int" name="NMIN">     0</i>
   <i name="EREF">      0.00000000</i>
   <separator name="electronic smearing" >
    <i type="int" name="ISMEAR">     2</i>
    <i name="SIGMA">      0.20000000</i>
    <i name="KSPACING">      0.50000000</i>
    <i type="logical" name="KGAMMA"> T  </i>
   </separator>
   <separator name="electronic projectors" >
    <i type="logical" name="LREAL"> F  </i>
    <v name="ROPT">      0.00000000</v>
    <i type="int" name="LMAXPAW">  -100</i>
    <i type="int" name="LMAXMIX">     2</i>
    <i type="logical" name="NLSPLINE"> F  </i>
   </separator>
   <separator name="electronic startup" >
    <i type="int" name="ISTART">     0</i>
    <i type="int" name="ICHARG">     2</i>
    <i type="int" name="INIWAV">     1</i>
   </separator>
   <separator name="electronic spin" >
    <i type="int" name="ISPIN">     1</i>
    <i type="logical" name="LNONCOLLINEAR"> F  </i>
    <v name="MAGMOM">      1.00000000      1.00000000      1.00000000      1.00000000</v>
    <i name="NUPDOWN">     -1.00000000</i>
    <i type="logical" name="LSORBIT"> F  </i>
    <v name="SAXIS">      0.00000000      0.00000000      1.00000000</v>
    <i type="logical" name="LSPIRAL"> F  </i>
    <v name="QSPIRAL">      0.00000000      0.00000000      0.00000000</v>
    <i type="logical" name="LZEROZ"> F  </i>
   </separator>
   <separator name="electronic exchange-correlation" >
    <i type="logical" name="LASPH"> F  </i>
    <i type="logical" name="LMETAGGA"> F  </i>
   </separator>
   <separator name="electronic convergence" >
    <i type="int" name="NELM">    60</i>
    <i type="int" name="NELMDL">    -5</i>
    <i type="int" name="NELMIN">    10</i>
    <i name="ENINI">    450.00000000</i>
    <separator name="electronic convergence detail" >
     <i type="logical" name="LDIAG"> T  </i>
     <i type="logical" name="LSUBROT"> F  </i>
     <i name="WEIMIN">      0.00100000</i>
     <i name="EBREAK">      0.00000001</i>
     <i name="DEPER">      0.30000000</i>
     <i type="int" name="NRMM">     4</i>
     <i name="TIME">      0.40000000</i>
    </separator>
   </separator>
   <separator name="electronic mixer" >
    <i name="AMIX">      0.40000000</i>
    <i name="BMIX">      1.00000000</i>
    <i name="AMIN">      0.10000000</i>
    <i name="AMIX_MAG">      1.60000000</i>
    <i name="BMIX_MAG">      1.00000000</i>
    <separator name="electronic mixer details" >
     <i type="int" name="IMIX">     4</i>
     <i type="logical" name="MIXFIRST"> F  </i>
     <i type="int" name="MAXMIX">   -45</i>
     <i name="WC">    100.00000000</i>
     <i type="int" name="INIMIX">     1</i>
     <i type="int" name="MIXPRE">     1</i>
     <i type="int" name="MREMOVE">     5</i>
    </separator>
   </separator>
   <separator name="electronic dipolcorrection" >
    <i type="logical" name="LDIPOL"> F  </i>
    <i type="logical" name="LMONO"> F  </i>
    <i type="int" name="IDIPOL">     0</i>
    <i name="EPSILON">      1.00000000</i>
    <v name="DIPOL">   -100.00000000   -100.00000000   -100.00000000</v>
    <i name="EFIELD">      0.00000000</i>
   </separator>
  </separator>
  <separator name="grids" >
   <i type="int" name="NGX">    24</i>
   <i type="int" name="NGY">    24</i>
   <i type="int" name="NGZ">    24</i>
   <i type="int" name="NGXF">    48</i>
   <i type="int" name="NGYF">    48</i>
   <i type="int" name="NGZF">    48</i>
   <i type="logical" name="ADDGRID"> F  </i>
  </separator>
  <separator name="ionic" >
   <i type="int" name="NSW">    10</i>
   <i type="int" name="IBRION">     2</i>
   <i type="int" name="MDALGO">     0</i>
   <i type="int" name="ISIF">     2</i>
   <i name="PSTRESS">      0.00000000</i>
   <i name="EDIFFG">     -0.02000000</i>
   <i type="int" name="NFREE">     1</i>
   <i name="POTIM">      0.20000000</i>
   <i name="SMASS">     -3.00000000</i>
   <i name="SCALEE">      1.00000000</i>
  </separator>
  <separator name="ionic md" >
   <i name="TEBEG">      0.00010000</i>
   <i name="TEEND">      0.00010000</i>
   <i type="int" name="NBLOCK">     1</i>
   <i type="int" name="KBLOCK">    10</i>
   <i type="int" name="NPACO">   256</i>
   <i name="APACO">     16.00000000</i>
  </separator>
  <separator name="symmetry" >
   <i type="int" name="ISYM">     2</i>
   <i name="SYMPREC">      0.00001000</i>
  </separator>
  <separator name="dos" >
   <i type="int" name="LORBIT">     0</i>
   <v name="RWIGS">     -1.00000000</v>
   <i type="int" name="NEDOS">   301</i>
   <i name="EMIN">     10.00000000</i>
   <i name="EMAX">    -10.00000000</i>
   <i name="EFERMI">      0.00000000</i>
  </separator>
  <separator name="writing" >
   <i type="int" name="NWRITE">     2</i>
   <i type="logical" name="LWAVE"> T  </i>
   <i type="logical" name="LDOWNSAMPLE"> F  </i>
   <i type="logical" name="LCHARG"> T  </i>
   <i type="logical" name="LPARD"> F  </i>
   <i type="logical" name="LVTOT"> F  </i>
   <i type="logical" name="LVHAR"> F  </i>
   <i type="logical" name="LELF"> F  </i>
   <i type="logical" name="LOPTICS"> F  </i>
   <v name="STM">      0.00000000      0.00000000      0.00000000      0.00000000      0.00000000      0.00000000      0.00000000</v>
  </separator>
  <separator name="performance" >
   <i type="int" name="NPAR">     2</i>
   <i type="int" name="NSIM">     4</i>
   <i type="int" name="NBLK">    -1</i>
   <i type="logical" name="LPLANE"> T  </i>
   <i type="logical" name="LSCALAPACK"> F  </i>
   <i type="logical" name="LSCAAWARE"> F  </i>
   <i type="logical" name="LSCALU"> F  </i>
   <i type="logical" name="LASYNC"> F  </i>
   <i type="logical" name="LORBITALREAL"> F  </i>
  </separator>
  <separator name="miscellaneous" >
   <i type="int" name="IDIOT">     3</i>
   <i type="int" name="ISPECIAL">     0</i>
   <i type="logical" name="LMUSIC"> F  </i>
   <v name="POMASS">    195.08000000</v>
   <v name="DARWINR">      0.00000000</v>
   <v name="DARWINV">      1.00000000</v>
   <i type="logical" name="LCORR"> T  </i>
  </separator>
  <i type="logical" name="GGA_COMPAT"> T  </i>
  <i type="logical" name="LBERRY"> F  </i>
  <i type="int" name="ICORELEVEL">     0</i>
  <i type="logical" name="LDAU"> F  </i>
  <i type="int" name="I_CONSTRAINED_M">     0</i>
  <separator name="electronic exchange-correlation" >
   <i type="string" name="GGA">91</i>
   <i type="int" name="VOSKOWN">     0</i>
   <i type="logical" name="LHFCALC"> F  </i>
   <i type="string" name="PRECFOCK"></i>
   <i type="logical" name="LSYMGRAD"> F  </i>
   <i type="logical" name="LHFONE"> F  </i>
   <i type="logical" name="LRHFCALC"> F  </i>
   <i type="logical" name="LTHOMAS"> F  </i>
   <i type="logical" name="LMODELHF"> F  </i>
   <i name="ENCUT4O">     -1.00000000</i>
   <i type="int" name="EXXOEP">     0</i>
   <i type="int" name="FOURORBIT">     0</i>
   <i name="AEXX">      0.00000000</i>
   <i name="HFALPHA">      0.00000000</i>
   <i name="MCALPHA">      0.00000000</i>
   <i name="ALDAX">      1.00000000</i>
   <i name="AGGAX">      1.00000000</i>
   <i name="ALDAC">      1.00000000</i>
   <i name="AGGAC">      1.00000000</i>
   <i type="int" name="NKREDX">     1</i>
   <i type="int" name="NKREDY">     1</i>
   <i type="int" name="NKREDZ">     1</i>
   <i type="logical" name="SHIFTRED"> F  </i>
   <i type="logical" name="ODDONLY"> F  </i>
   <i type="logical" name="EVENONLY"> F  </i>
   <i type="int" name="LMAXFOCK">     0</i>
   <i type="int" name="NMAXFOCKAE">     0</i>
   <i type="logical" name="LFOCKAEDFT"> F  </i>
   <i name="HFSCREEN">      0.00000000</i>
   <i name="HFSCREENC">      0.00000000</i>
   <i type="int" name="NBANDSGWLOW">     0</i>
  </separator>
  <separator name="vdW DFT" >
   <i type="logical" name="LUSE_VDW"> F  </i>
   <i name="Zab_VDW">     -0.84910000</i>
   <i name="PARAM1">      0.12340000</i>
   <i name="PARAM2">      1.00000000</i>
   <i name="PARAM3">      0.00000000</i>
  </separator>
  <separator name="model GW" >
   <i type="int" name="MODEL_GW">     0</i>
   <i name="MODEL_EPS0">      9.45671880</i>
   <i name="MODEL_ALPHA">      1.00000000</i>
  </separator>
  <separator name="linear response parameters" >
   <i type="logical" name="LEPSILON"> F  </i>
   <i type="logical" name="LRPA"> F  </i>
   <i type="logical" name="LNABLA"> F  </i>
   <i type="logical" name="LVEL"> F  </i>
   <i type="int" name="KINTER">     0</i>
   <i name="CSHIFT">      0.10000000</i>
   <i name="OMEGAMAX">     -1.00000000</i>
   <i name="DEG_THRESHOLD">      0.00200000</i>
   <i name="RTIME">     -0.10000000</i>
   <i name="WPLASMAI">      0.00000000</i>
   <v name="DFIELD">      0.00000000      0.00000000      0.00000000</v>
   <v name="WPLASMA">      0.00000000      0.00000000      0.00000000      0.00000000      0.00000000      0.00000000      0.00000000      0.00000000      0.00000000</v>
  </separator>
  <separator name="orbital magnetization" >
   <i type="logical" name="NUCIND"> F  </i>
   <v name="MAGPOS">      0.00000000      0.00000000      0.00000000</v>
   <i type="logical" name="LNICSALL"> T  </i>
   <i type="logical" name="ORBITALMAG"> F  </i>
   <i type="logical" name="LMAGBLOCH"> F  </i>
   <i type="logical" name="LCHIMAG"> F  </i>
   <i type="logical" name="LGAUGE"> T  </i>
   <i type="int" name="MAGATOM">     0</i>
   <v name="MAGDIPOL">      0.00000000      0.00000000      0.00000000</v>
   <v name="AVECCONST">      0.00000000      0.00000000      0.00000000</v>
  </separator>
  <separator name="response functions" >
   <i type="logical" name="LADDER"> F  </i>
   <i type="logical" name="LRPAFORCE"> F  </i>
   <i type="logical" name="LFXC"> F  </i>
   <i type="logical" name="LHARTREE"> T  </i>
   <i type="int" name="IBSE">     0</i>
   <v type="int" name="KPOINT">    -1     0     0     0</v>
   <i type="logical" name="LTCTE"> F  </i>
   <i type="logical" name="LTETE"> F  </i>
   <i type="logical" name="LTRIPLET"> F  </i>
   <i type="logical" name="LFXCEPS"> F  </i>
   <i type="logical" name="LFXHEG"> F  </i>
   <i type="int" name="NATURALO">     2</i>
   <i type="logical" name="L2ORDER"> F  </i>
   <i type="logical" name="LMP2LT"> F  </i>
   <i type="logical" name="LUSEW"> F  </i>
   <i name="ENCUTGW">     -2.00000000</i>
   <i name="ENCUTGWSOFT">     -2.00000000</i>
   <i name="ENCUTLF">     -1.00000000</i>
   <i type="int" name="LMAXMP2">    -1</i>
   <i name="SCISSOR">      0.00000000</i>
   <i type="int" name="NOMEGA">     0</i>
   <i type="int" name="NOMEGAR">     0</i>
   <i type="int" name="NBANDSGW">    -1</i>
   <i type="int" name="NBANDSO">    -1</i>
   <i type="int" name="NBANDSV">    -1</i>
   <i type="int" name="NELM">     1</i>
   <i type="int" name="NELMHF">     1</i>
   <i type="int" name="DIM">     3</i>
   <i type="int" name="ANTIRES">     0</i>
   <i name="OMEGAMAX">    -30.00000000</i>
   <i name="OMEGAMIN">    -30.00000000</i>
   <i name="OMEGATL">   -200.00000000</i>
   <i type="int" name="OMEGAGRID">   140</i>
   <i name="CSHIFT">     -0.10000000</i>
   <i type="logical" name="SELFENERGY"> F  </i>
   <i type="logical" name="LSPECTRAL"> F  </i>
   <i type="logical" name="LSPECTRALGW"> F  </i>
   <i type="logical" name="LSINGLES"> F  </i>
   <i type="logical" name="LFERMIGW"> F  </i>
   <i type="logical" name="ODDONLYGW"> F  </i>
   <i type="logical" name="EVENONLYGW"> F  </i>
   <i type="int" name="NKREDLFX">     1</i>
   <i type="int" name="NKREDLFY">     1</i>
   <i type="int" name="NKREDLFZ">     1</i>
   <i type="int" name="MAXMEM">  2800</i>
   <i type="int" name="TELESCOPE">     0</i>
   <i type="int" name="TAUPAR">     1</i>
   <i type="int" name="OMEGAPAR">    -1</i>
   <i name="LAMBDA">      1.00000000</i>
  </separator>
  <separator name="External order field" >
   <i name="OFIELD_KAPPA">      0.00000000</i>
   <v name="OFIELD_K">      0.00000000      0.00000000      0.00000000</v>
   <i name="OFIELD_Q6_NEAR">      0.00000000</i>
   <i name="OFIELD_Q6_FAR">      0.00000000</i>
   <i name="OFIELD_A">      0.00000000</i>
  </separator>
 </parameters>
 <atominfo>
  <atoms>       4 </atoms>
  <types>       1 </types>
  <array name="atoms" >
   <dimension dim="1">ion</dimension>
   <field type="string">element</field>
   <field type="int">atomtype</field>
   <set>
    <rc><c>Pt</c><c>   1</c></rc>
    <rc><c>Pt</c><c>   1</c></rc>
    <rc><c>Pt</c><c>   1</c></rc>
    <rc><c>Pt</c><c>   1</c></rc>
   </set>
  </array>
  <array name="atomtypes" >
   <dimension dim="1">type</dimension>
   <field type="int">atomspertype</field>
   <field type="string">element</field>
   <field>mass</field>
   <field>valence</field>
   <field type="string">pseudopotential</field>
   <set>
    <rc><c>   4</c><c>Pt</c><c>    195.08000000</c><c>     10.00000000</c><c> PAW_PBE Pt 05Jan2001                   </c></rc>
   </set>
  </array>
 </atominfo>
 <structure name="initialpos" >
  <crystal>
   <varray name="basis" >
    <v>       3.98000000       0.00000000       0.00000000 </v>
    <v>       0.00000000       3.98000000       0.00000000 </v>
    <v>       0.00000000       0.00000000       3.98000000 </v>
   </varray>
   <i name="volume">     63.04479200 </i>
   <varray name="rec_basis" >
    <v>       0.25125628       0.00000000       0.00000000 </v>
    <v>       0.00000000       0.25125628       0.00000000 </v>
    <v>       0.00000000       0.00000000       0.25125628 </v>
   </varray>
  </crystal>
  <varray name="positions" >
   <v>       0.00000000       0.00000000       0.00000000 </v>
   <v>       0.00000000       0.50000000       0.50000000 </v>
   <v>       0.50000000       0.00000000       0.50000000 </v>
   <v>       0.50000000       0.50000000       0.00000000 </v>
  </varray>
 </structure>
 <calculation>
  <scstep>
   <time name="dav">    1.92    1.92</time>
   <time name="total">    1.94    1.99</time>
   <energy>
    <i name="alphaZ">    369.24929184 </i>
    <i name="ewald">  -3317.64013855 </i>
    <i name="hartreedc">   -301.82881630 </i>
    <i name="XCdc">     13.53627886 </i>
    <i name="pawpsdc">   2293.79710215 </i>
    <i name="pawaedc">  -2181.03440391 </i>
    <i name="eentropy">     -0.00288464 </i>
    <i name="bandstr">    647.54110519 </i>
    <i name="atom">   2915.53815049 </i>
    <i name="e_fr_energy">    439.15568514 </i>
    <i name="e_wo_entrp">    439.15856978 </i>
    <i name="e_0_energy">    439.15640630 </i>
   </energy>
  </scstep>
  <scstep>
   <time name="dav">    1.85    1.86</time>
   <time name="total">    1.87    1.87</time>
   <energy>
    <i name="e_fr_energy">      3.99873158 </i>
    <i name="e_wo_entrp">      3.99906417 </i>
    <i name="e_0_energy">      3.99881473 </i>
   </energy>
  </scstep>
  <scstep>
   <time name="dav">    2.48    2.48</time>
   <time name="total">    2.50    2.50</time>
   <energy>
    <i name="e_fr_energy">    -25.20418756 </i>
    <i name="e_wo_entrp">    -25.20002980 </i>
    <i name="e_0_energy">    -25.20314812 </i>
   </energy>
  </scstep>
  <scstep>
   <time name="dav">    2.00    2.00</time>
   <time name="total">    2.01    2.01</time>
   <energy>
    <i name="e_fr_energy">    -26.07495724 </i>
    <i name="e_wo_entrp">    -26.07016617 </i>
    <i name="e_0_energy">    -26.07375947 </i>
   </energy>
  </scstep>
  <scstep>
   <time name="dav">    2.22    2.22</time>
   <time name="total">    2.36    2.36</time>
   <energy>
    <i name="e_fr_energy">    -26.09983464 </i>
    <i name="e_wo_entrp">    -26.09495500 </i>
    <i name="e_0_energy">    -26.09861473 </i>
   </energy>
  </scstep>
  <scstep>
   <time name="dav">    2.21    2.21</time>
   <time name="total">    2.36    2.36</time>
   <energy>
    <i name="e_fr_energy">    -24.56161162 </i>
    <i name="e_wo_entrp">    -24.55653041 </i>
    <i name="e_0_energy">    -24.56034132 </i>
   </energy>
  </scstep>
  <scstep>
   <time name="dav">    2.64    2.64</time>
   <time name="total">    2.79    2.79</time>
   <energy>
    <i name="e_fr_energy">    -24.43315807 </i>
    <i name="e_wo_entrp">    -24.42798451 </i>
    <i name="e_0_energy">    -24.43186468 </i>
   </energy>
  </scstep>
  <scstep>
   <time name="dav">    1.93    1.93</time>
   <time name="total">    2.08    2.08</time>
   <energy>
    <i name="e_fr_energy">    -24.41877057 </i>
    <i name="e_wo_entrp">    -24.41360896 </i>
    <i name="e_0_energy">    -24.41748017 </i>
   </energy>
  </scstep>
  <scstep>
   <time name="dav">    2.36    2.36</time>
   <time name="total">    2.51    2.51</time>
   <energy>
    <i name="e_fr_energy">    -24.41843743 </i>
    <i name="e_wo_entrp">    -24.41327208 </i>
    <i name="e_0_energy">    -24.41714609 </i>
   </energy>
  </scstep>
  <scstep>
   <time name="dav">    2.02    2.02</time>
   <time name="total">    2.17    2.17</time>
   <energy>
    <i name="e_fr_energy">    -24.41845579 </i>
    <i name="e_wo_entrp">    -24.41329068 </i>
    <i name="e_0_energy">    -24.41716451 </i>
   </energy>
  </scstep>
  <scstep>
   <time name="dav">    1.68    1.68</time>
   <time name="total">    1.83    1.83</time>
   <energy>
    <i name="e_fr_energy">    -24.41845824 </i>
    <i name="e_wo_entrp">    -24.41329319 </i>
    <i name="e_0_energy">    -24.41716698 </i>
   </energy>
  </scstep>
  <scstep>
   <time name="dav">    1.28    1.28</time>
   <time name="total">    1.31    1.32</time>
   <energy>
    <i name="alphaZ">    369.24929184 </i>
    <i name="ewald">  -3317.64013855 </i>
    <i name="hartreedc">   -261.08319272 </i>
    <i name="XCdc">     11.94035488 </i>
    <i name="pawpsdc">   2378.19641200 </i>
    <i name="pawaedc">  -2275.22171562 </i>
    <i name="eentropy">     -0.00516505 </i>
    <i name="bandstr">    154.60754471 </i>
    <i name="atom">   2915.53815049 </i>
    <i name="e_fr_energy">    -24.41845803 </i>
    <i name="e_wo_entrp">    -24.41329298 </i>
    <i name="e_0_energy">    -24.41716677 </i>
   </energy>
  </scstep>
  <structure>
   <crystal>
    <varray name="basis" >
     <v>       3.98000000       0.00000000       0.00000000 </v>
     <v>       0.00000000       3.98000000       0.00000000 </v>
     <v>       0.00000000       0.00000000       3.98000000 </v>
    </varray>
    <i name="volume">     63.04479200 </i>
    <varray name="rec_basis" >
     <v>       0.25125628       0.00000000       0.00000000 </v>
     <v>       0.00000000       0.25125628       0.00000000 </v>
     <v>       0.00000000       0.00000000       0.25125628 </v>
    </varray>
   </crystal>
   <varray name="positions" >
    <v>       0.00000000       0.00000000       0.00000000 </v>
    <v>       0.00000000       0.50000000       0.50000000 </v>
    <v>       0.50000000       0.00000000       0.50000000 </v>
    <v>       0.50000000       0.50000000       0.00000000 </v>
   </varray>
  </structure>
  <varray name="forces" >
   <v>      -0.00000000      -0.00000000       0.00000000 </v>
   <v>      -0.00000000       0.00000000      -0.00000000 </v>
   <v>       0.00000000      -0.00000000      -0.00000000 </v>
   <v>       0.00000000      -0.00000000       0.00000000 </v>
  </varray>
  <varray name="stress" >
   <v>      16.46861079       0.00000000      -0.00000000 </v>
   <v>       0.00000000      16.46861079       0.00000000 </v>
   <v>      -0.00000000       0.00000000      16.46861079 </v>
  </varray>
  <energy>
   <i name="e_fr_energy">    -24.41845803 </i>
   <i name="e_wo_entrp">    -24.41716677 </i>
   <i name="e_0_energy">     -0.00516505 </i>
  </energy>
  <time name="totalsc">   27.71   29.35</time>
  <eigenvalues>
   <array>
    <dimension dim="1">band</dimension>
    <dimension dim="2">kpoint</dimension>
    <dimension dim="3">spin</dimension>
    <field>eigene</field>
    <field>occ</field>
    <set>
     <set comment="spin 1">
      <set comment="kpoint 1">
       <r>   -2.4264    1.0000 </r>
       <r>    0.6535    1.0000 </r>
       <r>    0.6535    1.0000 </r>
       <r>    0.6535    1.0000 </r>
       <r>    1.0727    1.0000 </r>
       <r>    1.0727    1.0000 </r>
       <r>    1.0727    1.0000 </r>
       <r>    3.6967    1.0000 </r>
       <r>    3.7171    1.0000 </r>
       <r>    3.7171    1.0000 </r>
       <r>    5.7210    1.0000 </r>
       <r>    5.7210    1.0000 </r>
       <r>    7.2347    0.5789 </r>
       <r>    7.2347    0.5789 </r>
       <r>    7.2347    0.5789 </r>
       <r>    7.5657   -0.0057 </r>
       <r>    7.5657   -0.0057 </r>
       <r>    7.5657   -0.0057 </r>
       <r>    7.6882    0.0043 </r>
       <r>    7.6882    0.0043 </r>
       <r>    7.6882    0.0043 </r>
       <r>    9.2823    0.0000 </r>
       <r>    9.2823    0.0000 </r>
       <r>    9.2823    0.0000 </r>
      </set>
      <set comment="kpoint 2">
       <r>   -2.3617    1.0000 </r>
       <r>    0.6778    1.0000 </r>
       <r>    0.7005    1.0000 </r>
       <r>    0.7005    1.0000 </r>
       <r>    1.0990    1.0000 </r>
       <r>    1.1128    1.0000 </r>
       <r>    1.1128    1.0000 </r>
       <r>    3.6586    1.0000 </r>
       <r>    3.7470    1.0000 </r>
       <r>    3.7496    1.0000 </r>
       <r>    5.6756    1.0000 </r>
       <r>    5.7383    1.0000 </r>
       <r>    7.1437    0.9550 </r>
       <r>    7.1437    0.9550 </r>
       <r>    7.1989    0.7557 </r>
       <r>    7.1989    0.7557 </r>
       <r>    7.2086    0.7103 </r>
       <r>    7.4667   -0.0471 </r>
       <r>    7.6120    0.0031 </r>
       <r>    7.6839    0.0044 </r>
       <r>    7.6839    0.0044 </r>
       <r>    8.9379    0.0000 </r>
       <r>    9.7121    0.0000 </r>
       <r>    9.7121    0.0000 </r>
      </set>
      <set comment="kpoint 3">
       <r>   -2.2334    1.0000 </r>
       <r>    0.7233    1.0000 </r>
       <r>    0.7929    1.0000 </r>
       <r>    0.7929    1.0000 </r>
       <r>    1.1512    1.0000 </r>
       <r>    1.1929    1.0000 </r>
       <r>    1.1929    1.0000 </r>
       <r>    3.5789    1.0000 </r>
       <r>    3.8121    1.0000 </r>
       <r>    3.8145    1.0000 </r>
       <r>    5.5871    1.0000 </r>
       <r>    5.7726    1.0000 </r>
       <r>    6.6455    0.9997 </r>
       <r>    6.6455    0.9997 </r>
       <r>    7.0396    1.0491 </r>
       <r>    7.0396    1.0491 </r>
       <r>    7.1531    0.9288 </r>
       <r>    7.2661    0.4139 </r>
       <r>    7.4710   -0.0456 </r>
       <r>    7.6833    0.0044 </r>
       <r>    7.6833    0.0044 </r>
       <r>    8.3807    0.0000 </r>
       <r>   10.3071    0.0000 </r>
       <r>   10.3071    0.0000 </r>
      </set>
      <set comment="kpoint 4">
       <r>   -2.0432    1.0000 </r>
       <r>    0.7833    1.0000 </r>
       <r>    0.9271    1.0000 </r>
       <r>    0.9271    1.0000 </r>
       <r>    1.2287    1.0000 </r>
       <r>    1.3126    1.0000 </r>
       <r>    1.3126    1.0000 </r>
       <r>    3.4634    1.0000 </r>
       <r>    3.9096    1.0000 </r>
       <r>    3.9114    1.0000 </r>
       <r>    5.4601    1.0000 </r>
       <r>    5.8232    1.0000 </r>
       <r>    6.0956    1.0000 </r>
       <r>    6.0956    1.0000 </r>
       <r>    6.8471    0.9951 </r>
       <r>    6.8471    0.9951 </r>
       <r>    6.9454    1.0094 </r>
       <r>    7.0537    1.0515 </r>
       <r>    7.2936    0.2761 </r>
       <r>    7.6833    0.0044 </r>
       <r>    7.6833    0.0044 </r>
       <r>    7.7705    0.0015 </r>
       <r>   10.9592    0.0000 </r>
       <r>   10.9592    0.0000 </r>
      </set>
      <set comment="kpoint 5">
       <r>   -1.7945    1.0000 </r>
       <r>    0.8466    1.0000 </r>
       <r>    1.0974    1.0000 </r>
       <r>    1.0974    1.0000 </r>
       <r>    1.3305    1.0000 </r>
       <r>    1.4715    1.0000 </r>
       <r>    1.4715    1.0000 </r>
       <r>    3.3173    1.0000 </r>
       <r>    4.0383    1.0000 </r>
       <r>    4.0398    1.0000 </r>
       <r>    5.3017    1.0000 </r>
       <r>    5.5513    1.0000 </r>
       <r>    5.5513    1.0000 </r>
       <r>    5.8893    1.0000 </r>
       <r>    6.4726    1.0000 </r>
       <r>    6.6057    0.9999 </r>
       <r>    6.6057    0.9999 </r>
       <r>    6.8734    0.9958 </r>
       <r>    7.1340    0.9783 </r>
       <r>    7.2437    0.5315 </r>
       <r>    7.6836    0.0044 </r>
       <r>    7.6836    0.0044 </r>
       <r>   11.6339    0.0000 </r>
       <r>   11.6339    0.0000 </r>
      </set>
      <set comment="kpoint 6">
       <r>   -1.4920    1.0000 </r>
       <r>    0.8951    1.0000 </r>
       <r>    1.2949    1.0000 </r>
       <r>    1.2949    1.0000 </r>
       <r>    1.4552    1.0000 </r>
       <r>    1.6687    1.0000 </r>
       <r>    1.6687    1.0000 </r>
       <r>    3.1467    1.0000 </r>
       <r>    4.1963    1.0000 </r>
       <r>    4.1987    1.0000 </r>
       <r>    5.0251    1.0000 </r>
       <r>    5.0251    1.0000 </r>
       <r>    5.1227    1.0000 </r>
       <r>    5.8983    1.0000 </r>
       <r>    5.9696    1.0000 </r>
       <r>    6.3303    1.0000 </r>
       <r>    6.3303    1.0000 </r>
       <r>    6.6137    0.9999 </r>
       <r>    6.8251    0.9953 </r>
       <r>    7.0079    1.0369 </r>
       <r>    7.6840    0.0044 </r>
       <r>    7.6840    0.0044 </r>
       <r>   12.3132    0.0000 </r>
       <r>   12.3132    0.0000 </r>
      </set>
      <set comment="kpoint 7">
       <r>   -1.1431    1.0000 </r>
       <r>    0.9026    1.0000 </r>
       <r>    1.5063    1.0000 </r>
       <r>    1.5063    1.0000 </r>
       <r>    1.6009    1.0000 </r>
       <r>    1.9029    1.0000 </r>
       <r>    1.9029    1.0000 </r>
       <r>    2.9577    1.0000 </r>
       <r>    4.3773    1.0000 </r>
       <r>    4.3872    1.0000 </r>
       <r>    4.5231    1.0000 </r>
       <r>    4.5231    1.0000 </r>
       <r>    4.9407    1.0000 </r>
       <r>    5.3424    1.0000 </r>
       <r>    6.0426    1.0000 </r>
       <r>    6.0426    1.0000 </r>
       <r>    6.0626    1.0000 </r>
       <r>    6.3168    1.0000 </r>
       <r>    6.4569    1.0000 </r>
       <r>    6.8896    0.9971 </r>
       <r>    7.6844    0.0044 </r>
       <r>    7.6844    0.0044 </r>
       <r>   12.9783    0.0000 </r>
       <r>   12.9783    0.0000 </r>
      </set>
      <set comment="kpoint 8">
       <r>   -0.7588    1.0000 </r>
       <r>    0.8363    1.0000 </r>
       <r>    1.7113    1.0000 </r>
       <r>    1.7113    1.0000 </r>
       <r>    1.7655    1.0000 </r>
       <r>    2.1728    1.0000 </r>
       <r>    2.1728    1.0000 </r>
       <r>    2.7568    1.0000 </r>
       <r>    4.0491    1.0000 </r>
       <r>    4.0491    1.0000 </r>
       <r>    4.5432    1.0000 </r>
       <r>    4.6036    1.0000 </r>
       <r>    4.8093    1.0000 </r>
       <r>    4.8900    1.0000 </r>
       <r>    5.7721    1.0000 </r>
       <r>    5.7721    1.0000 </r>
       <r>    6.0071    1.0000 </r>
       <r>    6.1098    1.0000 </r>
       <r>    6.1665    1.0000 </r>
       <r>    6.7692    0.9973 </r>
       <r>    7.6847    0.0044 </r>
       <r>    7.6847    0.0044 </r>
       <r>   13.5815    0.0000 </r>
       <r>   13.5815    0.0000 </r>
      </set>
      <set comment="kpoint 9">
       <r>   -0.3561    1.0000 </r>
       <r>    0.6683    1.0000 </r>
       <r>    1.8802    1.0000 </r>
       <r>    1.8802    1.0000 </r>
       <r>    1.9462    1.0000 </r>
       <r>    2.4780    1.0000 </r>
       <r>    2.4780    1.0000 </r>
       <r>    2.5498    1.0000 </r>
       <r>    3.6059    1.0000 </r>
       <r>    3.6059    1.0000 </r>
       <r>    4.5224    1.0000 </r>
       <r>    4.5887    1.0000 </r>
       <r>    4.8459    1.0000 </r>
       <r>    4.9209    1.0000 </r>
       <r>    5.5556    1.0000 </r>
       <r>    5.5556    1.0000 </r>
       <r>    5.6976    1.0000 </r>
       <r>    5.7782    1.0000 </r>
       <r>    6.2792    1.0000 </r>
       <r>    6.6459    0.9997 </r>
       <r>    7.6850    0.0044 </r>
       <r>    7.6850    0.0044 </r>
       <r>   13.9421    0.0000 </r>
       <r>   13.9421    0.0000 </r>
      </set>
      <set comment="kpoint 10">
       <r>    0.0399    1.0000 </r>
       <r>    0.3943    1.0000 </r>
       <r>    1.9780    1.0000 </r>
       <r>    1.9780    1.0000 </r>
       <r>    2.1398    1.0000 </r>
       <r>    2.3425    1.0000 </r>
       <r>    2.8183    1.0000 </r>
       <r>    2.8183    1.0000 </r>
       <r>    3.1958    1.0000 </r>
       <r>    3.1958    1.0000 </r>
       <r>    4.4443    1.0000 </r>
       <r>    4.4490    1.0000 </r>
       <r>    5.1116    1.0000 </r>
       <r>    5.1738    1.0000 </r>
       <r>    5.3971    1.0000 </r>
       <r>    5.4331    1.0000 </r>
       <r>    5.4331    1.0000 </r>
       <r>    5.4644    1.0000 </r>
       <r>    6.3984    1.0000 </r>
       <r>    6.5215    1.0000 </r>
       <r>    7.6851    0.0044 </r>
       <r>    7.6851    0.0044 </r>
       <r>   14.0099    0.0000 </r>
       <r>   14.0099    0.0000 </r>
      </set>
      <set comment="kpoint 11">
       <r>   -2.2976    1.0000 </r>
       <r>    0.7251    1.0000 </r>
       <r>    0.7251    1.0000 </r>
       <r>    0.7436    1.0000 </r>
       <r>    1.1388    1.0000 </r>
       <r>    1.1388    1.0000 </r>
       <r>    1.1554    1.0000 </r>
       <r>    3.6367    1.0000 </r>
       <r>    3.7624    1.0000 </r>
       <r>    3.7793    1.0000 </r>
       <r>    5.6626    1.0000 </r>
       <r>    5.7261    1.0000 </r>
       <r>    6.9206    1.0023 </r>
       <r>    7.0112    1.0385 </r>
       <r>    7.0112    1.0385 </r>
       <r>    7.0992    1.0332 </r>
       <r>    7.1860    0.8117 </r>
       <r>    7.1860    0.8117 </r>
       <r>    7.6105    0.0030 </r>
       <r>    7.6105    0.0030 </r>
       <r>    7.6415    0.0048 </r>
       <r>    9.3814    0.0000 </r>
       <r>    9.3814    0.0000 </r>
       <r>   10.0489    0.0000 </r>
      </set>
      <set comment="kpoint 12">
       <r>   -2.1704    1.0000 </r>
       <r>    0.7711    1.0000 </r>
       <r>    0.8180    1.0000 </r>
       <r>    0.8284    1.0000 </r>
       <r>    1.1903    1.0000 </r>
       <r>    1.2181    1.0000 </r>
       <r>    1.2401    1.0000 </r>
       <r>    3.5682    1.0000 </r>
       <r>    3.8180    1.0000 </r>
       <r>    3.8398    1.0000 </r>
       <r>    5.5875    1.0000 </r>
       <r>    5.7528    1.0000 </r>
       <r>    6.4920    1.0000 </r>
       <r>    6.4971    1.0000 </r>
       <r>    6.7800    0.9969 </r>
       <r>    6.9740    1.0209 </r>
       <r>    7.0447    1.0503 </r>
       <r>    7.1221    1.0017 </r>
       <r>    7.4766   -0.0435 </r>
       <r>    7.6079    0.0027 </r>
       <r>    7.6166    0.0035 </r>
       <r>    8.8544    0.0000 </r>
       <r>    9.9674    0.0000 </r>
       <r>   10.5716    0.0000 </r>
      </set>
      <set comment="kpoint 13">
       <r>   -1.9819    1.0000 </r>
       <r>    0.8319    1.0000 </r>
       <r>    0.9521    1.0000 </r>
       <r>    0.9531    1.0000 </r>
       <r>    1.2668    1.0000 </r>
       <r>    1.3368    1.0000 </r>
       <r>    1.3660    1.0000 </r>
       <r>    3.4588    1.0000 </r>
       <r>    3.9118    1.0000 </r>
       <r>    3.9295    1.0000 </r>
       <r>    5.4672    1.0000 </r>
       <r>    5.8059    1.0000 </r>
       <r>    5.9518    1.0000 </r>
       <r>    5.9967    1.0000 </r>
       <r>    6.4464    1.0000 </r>
       <r>    6.7930    0.9964 </r>
       <r>    6.8602    0.9952 </r>
       <r>    7.0002    1.0333 </r>
       <r>    7.3077    0.2123 </r>
       <r>    7.6054    0.0024 </r>
       <r>    7.6055    0.0024 </r>
       <r>    8.2739    0.0000 </r>
       <r>   10.5921    0.0000 </r>
       <r>   11.1788    0.0000 </r>
      </set>
      <set comment="kpoint 14">
       <r>   -1.7353    1.0000 </r>
       <r>    0.8961    1.0000 </r>
       <r>    1.1104    1.0000 </r>
       <r>    1.1247    1.0000 </r>
       <r>    1.3672    1.0000 </r>
       <r>    1.4943    1.0000 </r>
       <r>    1.5306    1.0000 </r>
       <r>    3.3174    1.0000 </r>
       <r>    4.0387    1.0000 </r>
       <r>    4.0465    1.0000 </r>
       <r>    5.3172    1.0000 </r>
       <r>    5.4151    1.0000 </r>
       <r>    5.4863    1.0000 </r>
       <r>    5.8776    1.0000 </r>
       <r>    6.0214    1.0000 </r>
       <r>    6.5634    1.0000 </r>
       <r>    6.6280    0.9998 </r>
       <r>    6.8070    0.9959 </r>
       <r>    7.1273    0.9921 </r>
       <r>    7.6001    0.0017 </r>
       <r>    7.6038    0.0022 </r>
       <r>    7.7384    0.0024 </r>
       <r>   11.2213    0.0000 </r>
       <r>   11.8245    0.0000 </r>
      </set>
      <set comment="kpoint 15">
       <r>   -1.4354    1.0000 </r>
       <r>    0.9455    1.0000 </r>
       <r>    1.2977    1.0000 </r>
       <r>    1.3240    1.0000 </r>
       <r>    1.4901    1.0000 </r>
       <r>    1.6897    1.0000 </r>
       <r>    1.7301    1.0000 </r>
       <r>    3.1511    1.0000 </r>
       <r>    4.1836    1.0000 </r>
       <r>    4.1977    1.0000 </r>
       <r>    4.8986    1.0000 </r>
       <r>    4.9827    1.0000 </r>
       <r>    5.1530    1.0000 </r>
       <r>    5.5433    1.0000 </r>
       <r>    5.9653    1.0000 </r>
       <r>    6.2995    1.0000 </r>
       <r>    6.3609    1.0000 </r>
       <r>    6.5530    1.0000 </r>
       <r>    6.9081    0.9997 </r>
       <r>    7.3178    0.1703 </r>
       <r>    7.5977    0.0013 </r>
       <r>    7.6025    0.0020 </r>
       <r>   11.8315    0.0000 </r>
       <r>   12.4832    0.0000 </r>
      </set>
      <set comment="kpoint 16">
       <r>   -1.0894    1.0000 </r>
       <r>    0.9534    1.0000 </r>
       <r>    1.5046    1.0000 </r>
       <r>    1.5380    1.0000 </r>
       <r>    1.6337    1.0000 </r>
       <r>    1.9214    1.0000 </r>
       <r>    1.9583    1.0000 </r>
       <r>    2.9664    1.0000 </r>
       <r>    4.3259    1.0000 </r>
       <r>    4.3842    1.0000 </r>
       <r>    4.4083    1.0000 </r>
       <r>    4.4969    1.0000 </r>
       <r>    5.0042    1.0000 </r>
       <r>    5.0759    1.0000 </r>
       <r>    6.0228    1.0000 </r>
       <r>    6.0674    1.0000 </r>
       <r>    6.0792    1.0000 </r>
       <r>    6.2655    1.0000 </r>
       <r>    6.5955    0.9999 </r>
       <r>    7.0538    1.0515 </r>
       <r>    7.5968    0.0012 </r>
       <r>    7.6015    0.0019 </r>
       <r>   12.3952    0.0000 </r>
       <r>   13.1274    0.0000 </r>
      </set>
      <set comment="kpoint 17">
       <r>   -0.7080    1.0000 </r>
       <r>    0.8865    1.0000 </r>
       <r>    1.7148    1.0000 </r>
       <r>    1.7462    1.0000 </r>
       <r>    1.7958    1.0000 </r>
       <r>    2.1879    1.0000 </r>
       <r>    2.2095    1.0000 </r>
       <r>    2.7696    1.0000 </r>
       <r>    3.9487    1.0000 </r>
       <r>    4.0351    1.0000 </r>
       <r>    4.4142    1.0000 </r>
       <r>    4.5975    1.0000 </r>
       <r>    4.6878    1.0000 </r>
       <r>    4.9441    1.0000 </r>
       <r>    5.7629    1.0000 </r>
       <r>    5.8105    1.0000 </r>
       <r>    5.9649    1.0000 </r>
       <r>    6.1817    1.0000 </r>
       <r>    6.2400    1.0000 </r>
       <r>    6.8763    0.9960 </r>
       <r>    7.5968    0.0012 </r>
       <r>    7.6006    0.0017 </r>
       <r>   12.8745    0.0000 </r>
       <r>   13.6465    0.0000 </r>
      </set>
      <set comment="kpoint 18">
       <r>   -0.3078    1.0000 </r>
       <r>    0.7169    1.0000 </r>
       <r>    1.8978    1.0000 </r>
       <r>    1.9184    1.0000 </r>
       <r>    1.9737    1.0000 </r>
       <r>    2.4827    1.0000 </r>
       <r>    2.4883    1.0000 </r>
       <r>    2.5667    1.0000 </r>
       <r>    3.5240    1.0000 </r>
       <r>    3.6016    1.0000 </r>
       <r>    4.3853    1.0000 </r>
       <r>    4.4302    1.0000 </r>
       <r>    4.8350    1.0000 </r>
       <r>    5.0565    1.0000 </r>
       <r>    5.5576    1.0000 </r>
       <r>    5.5904    1.0000 </r>
       <r>    5.6642    1.0000 </r>
       <r>    5.8940    1.0000 </r>
       <r>    6.3064    1.0000 </r>
       <r>    6.7232    0.9987 </r>
       <r>    7.5973    0.0013 </r>
       <r>    7.5997    0.0016 </r>
       <r>   13.2319    0.0000 </r>
       <r>   13.7234    0.0000 </r>
      </set>
      <set comment="kpoint 19">
       <r>    0.0868    1.0000 </r>
       <r>    0.4414    1.0000 </r>
       <r>    2.0100    1.0000 </r>
       <r>    2.0167    1.0000 </r>
       <r>    2.1640    1.0000 </r>
       <r>    2.3632    1.0000 </r>
       <r>    2.7843    1.0000 </r>
       <r>    2.8192    1.0000 </r>
       <r>    3.1419    1.0000 </r>
       <r>    3.2017    1.0000 </r>
       <r>    4.3169    1.0000 </r>
       <r>    4.3209    1.0000 </r>
       <r>    5.0942    1.0000 </r>
       <r>    5.2866    1.0000 </r>
       <r>    5.3720    1.0000 </r>
       <r>    5.4472    1.0000 </r>
       <r>    5.4591    1.0000 </r>
       <r>    5.5728    1.0000 </r>
       <r>    6.4392    1.0000 </r>
       <r>    6.5784    1.0000 </r>
       <r>    7.5981    0.0014 </r>
       <r>    7.5989    0.0015 </r>
       <r>   13.4659    0.0000 </r>
       <r>   13.6191    0.0000 </r>
      </set>
      <set comment="kpoint 20">
       <r>   -2.0454    1.0000 </r>
       <r>    0.8651    1.0000 </r>
       <r>    0.8651    1.0000 </r>
       <r>    0.8992    1.0000 </r>
       <r>    1.2683    1.0000 </r>
       <r>    1.2683    1.0000 </r>
       <r>    1.3330    1.0000 </r>
       <r>    3.5246    1.0000 </r>
       <r>    3.8521    1.0000 </r>
       <r>    3.8911    1.0000 </r>
       <r>    5.5545    1.0000 </r>
       <r>    5.7492    1.0000 </r>
       <r>    6.1935    1.0000 </r>
       <r>    6.2433    1.0000 </r>
       <r>    6.2433    1.0000 </r>
       <r>    6.8553    0.9951 </r>
       <r>    7.0131    1.0393 </r>
       <r>    7.0131    1.0393 </r>
       <r>    7.4682   -0.0466 </r>
       <r>    7.4682   -0.0466 </r>
       <r>    7.5457   -0.0124 </r>
       <r>    9.4324    0.0000 </r>
       <r>    9.4324    0.0000 </r>
       <r>   11.0179    0.0000 </r>
      </set>
      <set comment="kpoint 21">
       <r>   -1.8602    1.0000 </r>
       <r>    0.9276    1.0000 </r>
       <r>    1.0020    1.0000 </r>
       <r>    1.0046    1.0000 </r>
       <r>    1.3427    1.0000 </r>
       <r>    1.3849    1.0000 </r>
       <r>    1.4681    1.0000 </r>
       <r>    3.4360    1.0000 </r>
       <r>    3.9301    1.0000 </r>
       <r>    3.9662    1.0000 </r>
       <r>    5.4620    1.0000 </r>
       <r>    5.7036    1.0000 </r>
       <r>    5.7929    1.0000 </r>
       <r>    5.7967    1.0000 </r>
       <r>    5.9107    1.0000 </r>
       <r>    6.6892    0.9993 </r>
       <r>    6.8502    0.9951 </r>
       <r>    6.9195    1.0020 </r>
       <r>    7.2859    0.3132 </r>
       <r>    7.4598   -0.0491 </r>
       <r>    7.4975   -0.0341 </r>
       <r>    8.8409    0.0000 </r>
       <r>   10.0279    0.0000 </r>
       <r>   11.5669    0.0000 </r>
      </set>
      <set comment="kpoint 22">
       <r>   -1.6179    1.0000 </r>
       <r>    0.9937    1.0000 </r>
       <r>    1.1436    1.0000 </r>
       <r>    1.1761    1.0000 </r>
       <r>    1.4404    1.0000 </r>
       <r>    1.5396    1.0000 </r>
       <r>    1.6400    1.0000 </r>
       <r>    3.3095    1.0000 </r>
       <r>    4.0481    1.0000 </r>
       <r>    4.0611    1.0000 </r>
       <r>    5.1799    1.0000 </r>
       <r>    5.3319    1.0000 </r>
       <r>    5.3529    1.0000 </r>
       <r>    5.5212    1.0000 </r>
       <r>    5.8709    1.0000 </r>
       <r>    6.4795    1.0000 </r>
       <r>    6.6382    0.9998 </r>
       <r>    6.7497    0.9979 </r>
       <r>    7.0840    1.0448 </r>
       <r>    7.4533   -0.0505 </r>
       <r>    7.4687   -0.0464 </r>
       <r>    8.2789    0.0000 </r>
       <r>   10.6142    0.0000 </r>
       <r>   12.1703    0.0000 </r>
      </set>
      <set comment="kpoint 23">
       <r>   -1.3232    1.0000 </r>
       <r>    1.0450    1.0000 </r>
       <r>    1.3137    1.0000 </r>
       <r>    1.3791    1.0000 </r>
       <r>    1.5598    1.0000 </r>
       <r>    1.7313    1.0000 </r>
       <r>    1.8406    1.0000 </r>
       <r>    3.1550    1.0000 </r>
       <r>    4.1648    1.0000 </r>
       <r>    4.2019    1.0000 </r>
       <r>    4.6800    1.0000 </r>
       <r>    4.8952    1.0000 </r>
       <r>    5.1066    1.0000 </r>
       <r>    5.1920    1.0000 </r>
       <r>    5.9726    1.0000 </r>
       <r>    6.2366    1.0000 </r>
       <r>    6.3892    1.0000 </r>
       <r>    6.5113    1.0000 </r>
       <r>    6.8616    0.9953 </r>
       <r>    7.4485   -0.0512 </r>
       <r>    7.4520   -0.0507 </r>
       <r>    7.7964    0.0009 </r>
       <r>   11.1722    0.0000 </r>
       <r>   12.7946    0.0000 </r>
      </set>
      <set comment="kpoint 24">
       <r>   -0.9830    1.0000 </r>
       <r>    1.0536    1.0000 </r>
       <r>    1.5104    1.0000 </r>
       <r>    1.5982    1.0000 </r>
       <r>    1.6991    1.0000 </r>
       <r>    1.9582    1.0000 </r>
       <r>    2.0586    1.0000 </r>
       <r>    2.9806    1.0000 </r>
       <r>    4.2092    1.0000 </r>
       <r>    4.2539    1.0000 </r>
       <r>    4.3854    1.0000 </r>
       <r>    4.4424    1.0000 </r>
       <r>    4.7129    1.0000 </r>
       <r>    5.0819    1.0000 </r>
       <r>    5.9804    1.0000 </r>
       <r>    6.0932    1.0000 </r>
       <r>    6.1215    1.0000 </r>
       <r>    6.2326    1.0000 </r>
       <r>    6.5959    0.9999 </r>
       <r>    7.4183   -0.0464 </r>
       <r>    7.4428   -0.0516 </r>
       <r>    7.4448   -0.0515 </r>
       <r>   11.6824    0.0000 </r>
       <r>   13.3625    0.0000 </r>
      </set>
      <set comment="kpoint 25">
       <r>   -0.6076    1.0000 </r>
       <r>    0.9853    1.0000 </r>
       <r>    1.7233    1.0000 </r>
       <r>    1.8135    1.0000 </r>
       <r>    1.8561    1.0000 </r>
       <r>    2.2179    1.0000 </r>
       <r>    2.2808    1.0000 </r>
       <r>    2.7931    1.0000 </r>
       <r>    3.7728    1.0000 </r>
       <r>    4.0054    1.0000 </r>
       <r>    4.2810    1.0000 </r>
       <r>    4.3943    1.0000 </r>
       <r>    4.5961    1.0000 </r>
       <r>    5.0643    1.0000 </r>
       <r>    5.7404    1.0000 </r>
       <r>    5.8602    1.0000 </r>
       <r>    5.9383    1.0000 </r>
       <r>    6.2297    1.0000 </r>
       <r>    6.2870    1.0000 </r>
       <r>    7.1352    0.9756 </r>
       <r>    7.4382   -0.0515 </r>
       <r>    7.4418   -0.0516 </r>
       <r>   12.1257    0.0000 </r>
       <r>   13.4034    0.0000 </r>
      </set>
      <set comment="kpoint 26">
       <r>   -0.2125    1.0000 </r>
       <r>    0.8121    1.0000 </r>
       <r>    1.9274    1.0000 </r>
       <r>    1.9933    1.0000 </r>
       <r>    2.0280    1.0000 </r>
       <r>    2.4993    1.0000 </r>
       <r>    2.5081    1.0000 </r>
       <r>    2.5989    1.0000 </r>
       <r>    3.3784    1.0000 </r>
       <r>    3.5918    1.0000 </r>
       <r>    4.1948    1.0000 </r>
       <r>    4.2285    1.0000 </r>
       <r>    4.8304    1.0000 </r>
       <r>    5.1767    1.0000 </r>
       <r>    5.5553    1.0000 </r>
       <r>    5.6387    1.0000 </r>
       <r>    5.6435    1.0000 </r>
       <r>    5.9648    1.0000 </r>
       <r>    6.3800    1.0000 </r>
       <r>    6.9114    1.0003 </r>
       <r>    7.4364   -0.0514 </r>
       <r>    7.4393   -0.0516 </r>
       <r>   12.4898    0.0000 </r>
       <r>   13.2148    0.0000 </r>
      </set>
      <set comment="kpoint 27">
       <r>    0.1789    1.0000 </r>
       <r>    0.5335    1.0000 </r>
       <r>    2.0701    1.0000 </r>
       <r>    2.0929    1.0000 </r>
       <r>    2.2117    1.0000 </r>
       <r>    2.4035    1.0000 </r>
       <r>    2.7272    1.0000 </r>
       <r>    2.8133    1.0000 </r>
       <r>    3.0518    1.0000 </r>
       <r>    3.2103    1.0000 </r>
       <r>    4.1241    1.0000 </r>
       <r>    4.1531    1.0000 </r>
       <r>    5.0851    1.0000 </r>
       <r>    5.3573    1.0000 </r>
       <r>    5.3876    1.0000 </r>
       <r>    5.4657    1.0000 </r>
       <r>    5.4961    1.0000 </r>
       <r>    5.6581    1.0000 </r>
       <r>    6.5428    1.0000 </r>
       <r>    6.7184    0.9988 </r>
       <r>    7.4363   -0.0514 </r>
       <r>    7.4374   -0.0515 </r>
       <r>   12.7780    0.0000 </r>
       <r>   13.0106    0.0000 </r>
      </set>
      <set comment="kpoint 28">
       <r>   -1.6799    1.0000 </r>
       <r>    1.0670    1.0000 </r>
       <r>    1.0670    1.0000 </r>
       <r>    1.0879    1.0000 </r>
       <r>    1.4563    1.0000 </r>
       <r>    1.4563    1.0000 </r>
       <r>    1.6119    1.0000 </r>
       <r>    3.3782    1.0000 </r>
       <r>    3.9843    1.0000 </r>
       <r>    4.0191    1.0000 </r>
       <r>    5.3870    1.0000 </r>
       <r>    5.3870    1.0000 </r>
       <r>    5.4125    1.0000 </r>
       <r>    5.5057    1.0000 </r>
       <r>    5.8207    1.0000 </r>
       <r>    6.5418    1.0000 </r>
       <r>    6.7867    0.9966 </r>
       <r>    6.7867    0.9966 </r>
       <r>    7.2641    0.4241 </r>
       <r>    7.2641    0.4241 </r>
       <r>    7.4016   -0.0345 </r>
       <r>    9.4104    0.0000 </r>
       <r>    9.4104    0.0000 </r>
       <r>   12.0640    0.0000 </r>
      </set>
      <set comment="kpoint 29">
       <r>   -1.4441    1.0000 </r>
       <r>    1.1363    1.0000 </r>
       <r>    1.2037    1.0000 </r>
       <r>    1.2449    1.0000 </r>
       <r>    1.5498    1.0000 </r>
       <r>    1.6068    1.0000 </r>
       <r>    1.7885    1.0000 </r>
       <r>    3.2803    1.0000 </r>
       <r>    4.0815    1.0000 </r>
       <r>    4.0846    1.0000 </r>
       <r>    4.8845    1.0000 </r>
       <r>    5.0306    1.0000 </r>
       <r>    5.1501    1.0000 </r>
       <r>    5.3166    1.0000 </r>
       <r>    5.9008    1.0000 </r>
       <r>    6.3561    1.0000 </r>
       <r>    6.6034    0.9999 </r>
       <r>    6.6524    0.9997 </r>
       <r>    7.0400    1.0492 </r>
       <r>    7.2482    0.5080 </r>
       <r>    7.3311    0.1202 </r>
       <r>    8.8185    0.0000 </r>
       <r>    9.9646    0.0000 </r>
       <r>   12.6235    0.0000 </r>
      </set>
      <set comment="kpoint 30">
       <r>   -1.1572    1.0000 </r>
       <r>    1.1904    1.0000 </r>
       <r>    1.3525    1.0000 </r>
       <r>    1.4532    1.0000 </r>
       <r>    1.6640    1.0000 </r>
       <r>    1.7932    1.0000 </r>
       <r>    1.9868    1.0000 </r>
       <r>    3.1490    1.0000 </r>
       <r>    4.1474    1.0000 </r>
       <r>    4.2223    1.0000 </r>
       <r>    4.4081    1.0000 </r>
       <r>    4.6657    1.0000 </r>
       <r>    4.7592    1.0000 </r>
       <r>    5.2057    1.0000 </r>
       <r>    6.0200    1.0000 </r>
       <r>    6.1403    1.0000 </r>
       <r>    6.3804    1.0000 </r>
       <r>    6.4454    1.0000 </r>
       <r>    6.7998    0.9961 </r>
       <r>    7.2372    0.5659 </r>
       <r>    7.2837    0.3241 </r>
       <r>    8.2938    0.0000 </r>
       <r>   10.4895    0.0000 </r>
       <r>   13.1757    0.0000 </r>
      </set>
      <set comment="kpoint 31">
       <r>   -0.8259    1.0000 </r>
       <r>    1.2001    1.0000 </r>
       <r>    1.5326    1.0000 </r>
       <r>    1.6800    1.0000 </r>
       <r>    1.7968    1.0000 </r>
       <r>    2.0131    1.0000 </r>
       <r>    2.1916    1.0000 </r>
       <r>    2.9938    1.0000 </r>
       <r>    3.9623    1.0000 </r>
       <r>    4.1865    1.0000 </r>
       <r>    4.3327    1.0000 </r>
       <r>    4.3562    1.0000 </r>
       <r>    4.3968    1.0000 </r>
       <r>    5.1247    1.0000 </r>
       <r>    5.9113    1.0000 </r>
       <r>    6.1344    1.0000 </r>
       <r>    6.1671    1.0000 </r>
       <r>    6.1869    1.0000 </r>
       <r>    6.5383    1.0000 </r>
       <r>    7.2295    0.6061 </r>
       <r>    7.2535    0.4800 </r>
       <r>    7.8546    0.0003 </r>
       <r>   10.9718    0.0000 </r>
       <r>   13.1284    0.0000 </r>
      </set>
      <set comment="kpoint 32">
       <r>   -0.4598    1.0000 </r>
       <r>    1.1290    1.0000 </r>
       <r>    1.7392    1.0000 </r>
       <r>    1.9066    1.0000 </r>
       <r>    1.9458    1.0000 </r>
       <r>    2.2626    1.0000 </r>
       <r>    2.3825    1.0000 </r>
       <r>    2.8230    1.0000 </r>
       <r>    3.5532    1.0000 </r>
       <r>    3.9573    1.0000 </r>
       <r>    4.0792    1.0000 </r>
       <r>    4.1675    1.0000 </r>
       <r>    4.6009    1.0000 </r>
       <r>    5.1251    1.0000 </r>
       <r>    5.6976    1.0000 </r>
       <r>    5.8879    1.0000 </r>
       <r>    5.9049    1.0000 </r>
       <r>    6.2522    1.0000 </r>
       <r>    6.3361    1.0000 </r>
       <r>    7.2240    0.6342 </r>
       <r>    7.2351    0.5768 </r>
       <r>    7.4978   -0.0339 </r>
       <r>   11.4000    0.0000 </r>
       <r>   12.8585    0.0000 </r>
      </set>
      <set comment="kpoint 33">
       <r>   -0.0730    1.0000 </r>
       <r>    0.9499    1.0000 </r>
       <r>    1.9588    1.0000 </r>
       <r>    2.1006    1.0000 </r>
       <r>    2.1084    1.0000 </r>
       <r>    2.5356    1.0000 </r>
       <r>    2.5390    1.0000 </r>
       <r>    2.6435    1.0000 </r>
       <r>    3.1941    1.0000 </r>
       <r>    3.5739    1.0000 </r>
       <r>    3.9419    1.0000 </r>
       <r>    4.0873    1.0000 </r>
       <r>    4.8292    1.0000 </r>
       <r>    5.2303    1.0000 </r>
       <r>    5.5380    1.0000 </r>
       <r>    5.6195    1.0000 </r>
       <r>    5.6712    1.0000 </r>
       <r>    5.9556    1.0000 </r>
       <r>    6.5236    1.0000 </r>
       <r>    7.2045    0.7297 </r>
       <r>    7.2204    0.6523 </r>
       <r>    7.2248    0.6300 </r>
       <r>   11.7683    0.0000 </r>
       <r>   12.6034    0.0000 </r>
      </set>
      <set comment="kpoint 34">
       <r>    0.3129    1.0000 </r>
       <r>    0.6669    1.0000 </r>
       <r>    2.1467    1.0000 </r>
       <r>    2.2043    1.0000 </r>
       <r>    2.2815    1.0000 </r>
       <r>    2.4613    1.0000 </r>
       <r>    2.6666    1.0000 </r>
       <r>    2.7697    1.0000 </r>
       <r>    2.9708    1.0000 </r>
       <r>    3.2176    1.0000 </r>
       <r>    3.9226    1.0000 </r>
       <r>    3.9875    1.0000 </r>
       <r>    5.0772    1.0000 </r>
       <r>    5.3417    1.0000 </r>
       <r>    5.4216    1.0000 </r>
       <r>    5.4724    1.0000 </r>
       <r>    5.5211    1.0000 </r>
       <r>    5.6712    1.0000 </r>
       <r>    6.7285    0.9985 </r>
       <r>    6.9531    1.0122 </r>
       <r>    7.2189    0.6600 </r>
       <r>    7.2200    0.6545 </r>
       <r>   12.0806    0.0000 </r>
       <r>   12.3517    0.0000 </r>
      </set>
      <set comment="kpoint 35">
       <r>   -1.2168    1.0000 </r>
       <r>    1.2950    1.0000 </r>
       <r>    1.3186    1.0000 </r>
       <r>    1.3186    1.0000 </r>
       <r>    1.6949    1.0000 </r>
       <r>    1.6949    1.0000 </r>
       <r>    1.9651    1.0000 </r>
       <r>    3.2185    1.0000 </r>
       <r>    4.1112    1.0000 </r>
       <r>    4.1555    1.0000 </r>
       <r>    4.5604    1.0000 </r>
       <r>    4.5604    1.0000 </r>
       <r>    4.8849    1.0000 </r>
       <r>    5.2564    1.0000 </r>
       <r>    5.9888    1.0000 </r>
       <r>    6.1975    1.0000 </r>
       <r>    6.5043    1.0000 </r>
       <r>    6.5043    1.0000 </r>
       <r>    7.0074    1.0367 </r>
       <r>    7.0074    1.0367 </r>
       <r>    7.2130    0.6890 </r>
       <r>    9.3437    0.0000 </r>
       <r>    9.3437    0.0000 </r>
       <r>   13.1125    0.0000 </r>
      </set>
      <set comment="kpoint 36">
       <r>   -0.9405    1.0000 </r>
       <r>    1.3768    1.0000 </r>
       <r>    1.4190    1.0000 </r>
       <r>    1.5332    1.0000 </r>
       <r>    1.8020    1.0000 </r>
       <r>    1.8744    1.0000 </r>
       <r>    2.1569    1.0000 </r>
       <r>    3.1223    1.0000 </r>
       <r>    4.1155    1.0000 </r>
       <r>    4.1342    1.0000 </r>
       <r>    4.2395    1.0000 </r>
       <r>    4.2719    1.0000 </r>
       <r>    4.5735    1.0000 </r>
       <r>    5.1728    1.0000 </r>
       <r>    6.0114    1.0000 </r>
       <r>    6.1292    1.0000 </r>
       <r>    6.3126    1.0000 </r>
       <r>    6.3352    1.0000 </r>
       <r>    6.7468    0.9980 </r>
       <r>    6.9864    1.0266 </r>
       <r>    7.1225    1.0011 </r>
       <r>    8.7862    0.0000 </r>
       <r>    9.8431    0.0000 </r>
       <r>   12.9674    0.0000 </r>
      </set>
      <set comment="kpoint 37">
       <r>   -0.6213    1.0000 </r>
       <r>    1.3875    1.0000 </r>
       <r>    1.5762    1.0000 </r>
       <r>    1.7693    1.0000 </r>
       <r>    1.9259    1.0000 </r>
       <r>    2.0856    1.0000 </r>
       <r>    2.3461    1.0000 </r>
       <r>    2.9976    1.0000 </r>
       <r>    3.7003    1.0000 </r>
       <r>    3.9616    1.0000 </r>
       <r>    4.1315    1.0000 </r>
       <r>    4.2351    1.0000 </r>
       <r>    4.4285    1.0000 </r>
       <r>    5.1098    1.0000 </r>
       <r>    5.8124    1.0000 </r>
       <r>    6.0933    1.0000 </r>
       <r>    6.1084    1.0000 </r>
       <r>    6.3072    1.0000 </r>
       <r>    6.4728    1.0000 </r>
       <r>    6.9731    1.0205 </r>
       <r>    7.0580    1.0516 </r>
       <r>    8.3062    0.0000 </r>
       <r>   10.3063    0.0000 </r>
       <r>   12.6102    0.0000 </r>
      </set>
      <set comment="kpoint 38">
       <r>   -0.2681    1.0000 </r>
       <r>    1.3116    1.0000 </r>
       <r>    1.7655    1.0000 </r>
       <r>    2.0109    1.0000 </r>
       <r>    2.0639    1.0000 </r>
       <r>    2.3226    1.0000 </r>
       <r>    2.5079    1.0000 </r>
       <r>    2.8529    1.0000 </r>
       <r>    3.3207    1.0000 </r>
       <r>    3.7720    1.0000 </r>
       <r>    3.8873    1.0000 </r>
       <r>    4.0779    1.0000 </r>
       <r>    4.6184    1.0000 </r>
       <r>    5.1145    1.0000 </r>
       <r>    5.6271    1.0000 </r>
       <r>    5.8488    1.0000 </r>
       <r>    5.8674    1.0000 </r>
       <r>    6.1872    1.0000 </r>
       <r>    6.5127    1.0000 </r>
       <r>    6.9653    1.0171 </r>
       <r>    7.0147    1.0400 </r>
       <r>    7.9014    0.0001 </r>
       <r>   10.7251    0.0000 </r>
       <r>   12.2896    0.0000 </r>
      </set>
      <set comment="kpoint 39">
       <r>    0.1064    1.0000 </r>
       <r>    1.1235    1.0000 </r>
       <r>    1.9827    1.0000 </r>
       <r>    2.2132    1.0000 </r>
       <r>    2.2297    1.0000 </r>
       <r>    2.5677    1.0000 </r>
       <r>    2.6113    1.0000 </r>
       <r>    2.6959    1.0000 </r>
       <r>    2.9986    1.0000 </r>
       <r>    3.5447    1.0000 </r>
       <r>    3.7006    1.0000 </r>
       <r>    3.9716    1.0000 </r>
       <r>    4.8339    1.0000 </r>
       <r>    5.2101    1.0000 </r>
       <r>    5.4936    1.0000 </r>
       <r>    5.5803    1.0000 </r>
       <r>    5.6621    1.0000 </r>
       <r>    5.8987    1.0000 </r>
       <r>    6.7400    0.9982 </r>
       <r>    6.9620    1.0157 </r>
       <r>    6.9871    1.0270 </r>
       <r>    7.5575   -0.0082 </r>
       <r>   11.0957    0.0000 </r>
       <r>   11.9982    0.0000 </r>
      </set>
      <set comment="kpoint 40">
       <r>    0.4833    1.0000 </r>
       <r>    0.8350    1.0000 </r>
       <r>    2.2114    1.0000 </r>
       <r>    2.3459    1.0000 </r>
       <r>    2.3710    1.0000 </r>
       <r>    2.5334    1.0000 </r>
       <r>    2.6369    1.0000 </r>
       <r>    2.6551    1.0000 </r>
       <r>    2.9458    1.0000 </r>
       <r>    3.2207    1.0000 </r>
       <r>    3.7376    1.0000 </r>
       <r>    3.8434    1.0000 </r>
       <r>    5.0683    1.0000 </r>
       <r>    5.3179    1.0000 </r>
       <r>    5.3875    1.0000 </r>
       <r>    5.4498    1.0000 </r>
       <r>    5.5115    1.0000 </r>
       <r>    5.6249    1.0000 </r>
       <r>    6.9635    1.0163 </r>
       <r>    6.9712    1.0196 </r>
       <r>    6.9874    1.0271 </r>
       <r>    7.2573    0.4596 </r>
       <r>   11.4220    0.0000 </r>
       <r>   11.7164    0.0000 </r>
      </set>
      <set comment="kpoint 41">
       <r>   -0.6773    1.0000 </r>
       <r>    1.5159    1.0000 </r>
       <r>    1.5968    1.0000 </r>
       <r>    1.5968    1.0000 </r>
       <r>    1.9729    1.0000 </r>
       <r>    1.9729    1.0000 </r>
       <r>    2.3372    1.0000 </r>
       <r>    3.0673    1.0000 </r>
       <r>    3.8357    1.0000 </r>
       <r>    3.8357    1.0000 </r>
       <r>    4.1194    1.0000 </r>
       <r>    4.3428    1.0000 </r>
       <r>    4.3605    1.0000 </r>
       <r>    5.1080    1.0000 </r>
       <r>    5.8553    1.0000 </r>
       <r>    6.1780    1.0000 </r>
[...]
       <r>    7.7949    0.0010 </r>
       <r>    8.2103    0.0000 </r>
       <r>    8.2103    0.0000 </r>
       <r>    8.5292    0.0000 </r>
      </set>
      <set comment="kpoint 217">
       <r>    0.3630    1.0000 </r>
       <r>    0.5396    1.0000 </r>
       <r>    0.5396    1.0000 </r>
       <r>    0.5396    1.0000 </r>
       <r>    3.5241    1.0000 </r>
       <r>    3.5241    1.0000 </r>
       <r>    3.5241    1.0000 </r>
       <r>    3.7112    1.0000 </r>
       <r>    3.7112    1.0000 </r>
       <r>    3.8073    1.0000 </r>
       <r>    3.8073    1.0000 </r>
       <r>    3.8073    1.0000 </r>
       <r>    5.7732    1.0000 </r>
       <r>    5.7732    1.0000 </r>
       <r>    5.7732    1.0000 </r>
       <r>    6.0639    1.0000 </r>
       <r>    7.0955    1.0366 </r>
       <r>    7.0955    1.0366 </r>
       <r>    7.2981    0.2551 </r>
       <r>    7.2981    0.2551 </r>
       <r>    7.2981    0.2551 </r>
       <r>    8.4696    0.0000 </r>
       <r>    8.4696    0.0000 </r>
       <r>    8.4696    0.0000 </r>
      </set>
      <set comment="kpoint 218">
       <r>    0.3866    1.0000 </r>
       <r>    0.4456    1.0000 </r>
       <r>    0.5028    1.0000 </r>
       <r>    0.5028    1.0000 </r>
       <r>    3.5505    1.0000 </r>
       <r>    3.5505    1.0000 </r>
       <r>    3.6068    1.0000 </r>
       <r>    3.6699    1.0000 </r>
       <r>    3.7097    1.0000 </r>
       <r>    3.7419    1.0000 </r>
       <r>    3.7657    1.0000 </r>
       <r>    3.7657    1.0000 </r>
       <r>    5.9936    1.0000 </r>
       <r>    5.9936    1.0000 </r>
       <r>    6.0410    1.0000 </r>
       <r>    6.2051    1.0000 </r>
       <r>    7.2149    0.6800 </r>
       <r>    7.2697    0.3952 </r>
       <r>    7.2697    0.3952 </r>
       <r>    7.2834    0.3255 </r>
       <r>    7.3186    0.1672 </r>
       <r>    7.8485    0.0003 </r>
       <r>    8.4089    0.0000 </r>
       <r>    8.4089    0.0000 </r>
      </set>
      <set comment="kpoint 219">
       <r>    0.3880    1.0000 </r>
       <r>    0.4269    1.0000 </r>
       <r>    0.4269    1.0000 </r>
       <r>    0.4460    1.0000 </r>
       <r>    3.5970    1.0000 </r>
       <r>    3.6160    1.0000 </r>
       <r>    3.6160    1.0000 </r>
       <r>    3.6611    1.0000 </r>
       <r>    3.6847    1.0000 </r>
       <r>    3.7083    1.0000 </r>
       <r>    3.7083    1.0000 </r>
       <r>    3.7163    1.0000 </r>
       <r>    6.2654    1.0000 </r>
       <r>    6.3020    1.0000 </r>
       <r>    6.3020    1.0000 </r>
       <r>    6.4497    1.0000 </r>
       <r>    7.1862    0.8107 </r>
       <r>    7.2530    0.4824 </r>
       <r>    7.2530    0.4824 </r>
       <r>    7.2553    0.4706 </r>
       <r>    7.4997   -0.0330 </r>
       <r>    7.8989    0.0001 </r>
       <r>    7.8989    0.0001 </r>
       <r>    8.1052    0.0000 </r>
      </set>
      <set comment="kpoint 220">
       <r>    0.3687    1.0000 </r>
       <r>    0.3880    1.0000 </r>
       <r>    0.3880    1.0000 </r>
       <r>    0.3880    1.0000 </r>
       <r>    3.6397    1.0000 </r>
       <r>    3.6397    1.0000 </r>
       <r>    3.6397    1.0000 </r>
       <r>    3.6613    1.0000 </r>
       <r>    3.6613    1.0000 </r>
       <r>    3.6719    1.0000 </r>
       <r>    3.6719    1.0000 </r>
       <r>    3.6719    1.0000 </r>
       <r>    6.6714    0.9995 </r>
       <r>    6.6714    0.9995 </r>
       <r>    6.6714    0.9995 </r>
       <r>    6.8851    0.9967 </r>
       <r>    7.2639    0.4250 </r>
       <r>    7.2639    0.4250 </r>
       <r>    7.2873    0.3065 </r>
       <r>    7.2873    0.3065 </r>
       <r>    7.2873    0.3065 </r>
       <r>    7.6228    0.0040 </r>
       <r>    7.6228    0.0040 </r>
       <r>    7.6228    0.0040 </r>
      </set>
     </set>
    </set>
   </array>
  </eigenvalues>
  <separator name="orbital magnetization" >
   <v name="MAGDIPOLOUT">      0.00000000      0.00000000      0.00000000</v>
  </separator>
  <dos>
   <i name="efermi">      7.24970061 </i>
   <total>
    <array>
     <dimension dim="1">gridpoints</dimension>
     <dimension dim="2">spin</dimension>
     <field>energy</field>
     <field>total</field>
     <field>integrated</field>
     <set>
      <set comment="spin 1">
       <r>    -4.4264     0.0000     0.0000 </r>
       <r>    -4.3583     0.0000     0.0000 </r>
       <r>    -4.2901     0.0000     0.0000 </r>
       <r>    -4.2220     0.0000     0.0000 </r>
       <r>    -4.1539     0.0000     0.0000 </r>
       <r>    -4.0858     0.0000     0.0000 </r>
       <r>    -4.0176     0.0000     0.0000 </r>
       <r>    -3.9495     0.0000     0.0000 </r>
       <r>    -3.8814     0.0000     0.0000 </r>
       <r>    -3.8133     0.0000     0.0000 </r>
       <r>    -3.7452     0.0000     0.0000 </r>
       <r>    -3.6770     0.0000     0.0000 </r>
       <r>    -3.6089     0.0000     0.0000 </r>
       <r>    -3.5408     0.0000     0.0000 </r>
       <r>    -3.4727     0.0000     0.0000 </r>
       <r>    -3.4046     0.0000     0.0000 </r>
       <r>    -3.3364     0.0000     0.0000 </r>
       <r>    -3.2683     0.0000     0.0000 </r>
       <r>    -3.2002     0.0000     0.0000 </r>
       <r>    -3.1321     0.0000     0.0000 </r>
       <r>    -3.0640     0.0000     0.0000 </r>
       <r>    -2.9958     0.0000     0.0000 </r>
       <r>    -2.9277     0.0001     0.0000 </r>
       <r>    -2.8596     0.0003     0.0000 </r>
       <r>    -2.7915     0.0004     0.0001 </r>
       <r>    -2.7234    -0.0000     0.0001 </r>
       <r>    -2.6552    -0.0018    -0.0001 </r>
       <r>    -2.5871    -0.0038    -0.0003 </r>
       <r>    -2.5190    -0.0006    -0.0004 </r>
       <r>    -2.4509     0.0146     0.0006 </r>
       <r>    -2.3827     0.0436     0.0036 </r>
       <r>    -2.3146     0.0793     0.0090 </r>
       <r>    -2.2465     0.1114     0.0166 </r>
       <r>    -2.1784     0.1354     0.0258 </r>
       <r>    -2.1103     0.1549     0.0364 </r>
       <r>    -2.0421     0.1742     0.0482 </r>
       <r>    -1.9740     0.1904     0.0612 </r>
       <r>    -1.9059     0.2020     0.0750 </r>
       <r>    -1.8378     0.2168     0.0897 </r>
       <r>    -1.7697     0.2390     0.1060 </r>
       <r>    -1.7015     0.2579     0.1236 </r>
       <r>    -1.6334     0.2634     0.1415 </r>
       <r>    -1.5653     0.2665     0.1597 </r>
       <r>    -1.4972     0.2881     0.1793 </r>
       <r>    -1.4291     0.3225     0.2013 </r>
       <r>    -1.3609     0.3385     0.2243 </r>
       <r>    -1.2928     0.3296     0.2468 </r>
       <r>    -1.2247     0.3297     0.2692 </r>
       <r>    -1.1566     0.3602     0.2938 </r>
       <r>    -1.0884     0.3984     0.3209 </r>
       <r>    -1.0203     0.4175     0.3494 </r>
       <r>    -0.9522     0.4205     0.3780 </r>
       <r>    -0.8841     0.4195     0.4066 </r>
       <r>    -0.8160     0.4246     0.4355 </r>
       <r>    -0.7478     0.4530     0.4664 </r>
       <r>    -0.6797     0.5068     0.5009 </r>
       <r>    -0.6116     0.5476     0.5382 </r>
       <r>    -0.5435     0.5394     0.5749 </r>
       <r>    -0.4754     0.5123     0.6098 </r>
       <r>    -0.4072     0.5338     0.6462 </r>
       <r>    -0.3391     0.6106     0.6878 </r>
       <r>    -0.2710     0.6737     0.7337 </r>
       <r>    -0.2029     0.6809     0.7801 </r>
       <r>    -0.1348     0.6782     0.8263 </r>
       <r>    -0.0666     0.7186     0.8752 </r>
       <r>     0.0015     0.7798     0.9283 </r>
       <r>     0.0696     0.8230     0.9844 </r>
       <r>     0.1377     0.8708     1.0437 </r>
       <r>     0.2059     0.9698     1.1098 </r>
       <r>     0.2740     1.1467     1.1879 </r>
       <r>     0.3421     1.4217     1.2847 </r>
       <r>     0.4102     1.7776     1.4058 </r>
       <r>     0.4783     2.1071     1.5494 </r>
       <r>     0.5465     2.2907     1.7054 </r>
       <r>     0.6146     2.3631     1.8664 </r>
       <r>     0.6827     2.5051     2.0370 </r>
       <r>     0.7508     2.8246     2.2294 </r>
       <r>     0.8189     3.2379     2.4500 </r>
       <r>     0.8871     3.6078     2.6958 </r>
       <r>     0.9552     3.9067     2.9619 </r>
       <r>     1.0233     4.2033     3.2482 </r>
       <r>     1.0914     4.5555     3.5586 </r>
       <r>     1.1595     4.9654     3.8968 </r>
       <r>     1.2277     5.3965     4.2644 </r>
       <r>     1.2958     5.7785     4.6581 </r>
       <r>     1.3639     6.0200     5.0682 </r>
       <r>     1.4320     6.0806     5.4824 </r>
       <r>     1.5002     6.0089     5.8917 </r>
       <r>     1.5683     5.8640     6.2912 </r>
       <r>     1.6364     5.6829     6.6783 </r>
       <r>     1.7045     5.5221     7.0545 </r>
       <r>     1.7726     5.4065     7.4228 </r>
       <r>     1.8408     5.3262     7.7856 </r>
       <r>     1.9089     5.3070     8.1471 </r>
       <r>     1.9770     5.2982     8.5080 </r>
       <r>     2.0451     5.1360     8.8579 </r>
       <r>     2.1132     4.7891     9.1841 </r>
       <r>     2.1814     4.3790     9.4824 </r>
       <r>     2.2495     3.9686     9.7528 </r>
       <r>     2.3176     3.6564    10.0019 </r>
       <r>     2.3857     3.7152    10.2549 </r>
       <r>     2.4538     4.2735    10.5461 </r>
       <r>     2.5220     5.0003    10.8867 </r>
       <r>     2.5901     5.4243    11.2562 </r>
       <r>     2.6582     5.4849    11.6298 </r>
       <r>     2.7263     5.4887    12.0037 </r>
       <r>     2.7945     5.6172    12.3864 </r>
       <r>     2.8626     5.7839    12.7804 </r>
       <r>     2.9307     5.8733    13.1805 </r>
       <r>     2.9988     5.8689    13.5803 </r>
       <r>     3.0669     5.8632    13.9797 </r>
       <r>     3.1351     6.0000    14.3884 </r>
       <r>     3.2032     6.2563    14.8146 </r>
       <r>     3.2713     6.4032    15.2508 </r>
       <r>     3.3394     6.3337    15.6822 </r>
       <r>     3.4075     6.2565    16.1084 </r>
       <r>     3.4757     6.4402    16.5472 </r>
       <r>     3.5438     6.8633    17.0147 </r>
       <r>     3.6119     7.2474    17.5084 </r>
       <r>     3.6800     7.4256    18.0142 </r>
       <r>     3.7481     7.5278    18.5270 </r>
       <r>     3.8163     7.7939    19.0580 </r>
       <r>     3.8844     8.3680    19.6280 </r>
       <r>     3.9525     9.2363    20.2572 </r>
       <r>     4.0206    10.1173    20.9464 </r>
       <r>     4.0887    10.4370    21.6574 </r>
       <r>     4.1569     9.7528    22.3217 </r>
       <r>     4.2250     8.3028    22.8873 </r>
       <r>     4.2931     6.8855    23.3564 </r>
       <r>     4.3612     6.0761    23.7703 </r>
       <r>     4.4294     5.7664    24.1631 </r>
       <r>     4.4975     5.5499    24.5412 </r>
       <r>     4.5656     5.2545    24.8991 </r>
       <r>     4.6337     4.9513    25.2364 </r>
       <r>     4.7018     4.7410    25.5594 </r>
       <r>     4.7700     4.6835    25.8784 </r>
       <r>     4.8381     4.7336    26.2009 </r>
       <r>     4.9062     4.7639    26.5254 </r>
       <r>     4.9743     4.7907    26.8517 </r>
       <r>     5.0424     4.9754    27.1907 </r>
       <r>     5.1106     5.3152    27.5527 </r>
       <r>     5.1787     5.6199    27.9356 </r>
       <r>     5.2468     5.8465    28.3338 </r>
       <r>     5.3149     6.1645    28.7538 </r>
       <r>     5.3830     6.6063    29.2038 </r>
       <r>     5.4512     6.9052    29.6742 </r>
       <r>     5.5193     6.8050    30.1377 </r>
       <r>     5.5874     6.3379    30.5695 </r>
       <r>     5.6555     5.7502    30.9612 </r>
       <r>     5.7237     5.3306    31.3243 </r>
       <r>     5.7918     5.2356    31.6810 </r>
       <r>     5.8599     5.3276    32.0439 </r>
       <r>     5.9280     5.3139    32.4059 </r>
       <r>     5.9961     5.0958    32.7530 </r>
       <r>     6.0643     4.8383    33.0826 </r>
       <r>     6.1324     4.7201    33.4041 </r>
       <r>     6.2005     4.7466    33.7275 </r>
       <r>     6.2686     4.7807    34.0531 </r>
       <r>     6.3367     4.7139    34.3743 </r>
       <r>     6.4049     4.6300    34.6897 </r>
       <r>     6.4730     4.6925    35.0093 </r>
       <r>     6.5411     4.8754    35.3414 </r>
       <r>     6.6092     5.0206    35.6834 </r>
       <r>     6.6773     5.0779    36.0294 </r>
       <r>     6.7455     5.0980    36.3766 </r>
       <r>     6.8136     5.1850    36.7298 </r>
       <r>     6.8817     5.5307    37.1066 </r>
       <r>     6.9498     6.2283    37.5309 </r>
       <r>     7.0180     7.1010    38.0146 </r>
       <r>     7.0861     7.9386    38.5554 </r>
       <r>     7.1542     8.6544    39.1449 </r>
       <r>     7.2223     9.0011    39.7581 </r>
       <r>     7.2904     8.5884    40.3431 </r>
       <r>     7.3586     7.4575    40.8512 </r>
       <r>     7.4267     6.1736    41.2717 </r>
       <r>     7.4948     5.1641    41.6235 </r>
       <r>     7.5629     4.3420    41.9193 </r>
       <r>     7.6310     3.4272    42.1527 </r>
       <r>     7.6992     2.4088    42.3168 </r>
       <r>     7.7673     1.6417    42.4287 </r>
       <r>     7.8354     1.4180    42.5253 </r>
       <r>     7.9035     1.5052    42.6278 </r>
       <r>     7.9716     1.3966    42.7229 </r>
       <r>     8.0398     0.9838    42.7899 </r>
       <r>     8.1079     0.6583    42.8348 </r>
       <r>     8.1760     0.7623    42.8867 </r>
       <r>     8.2441     1.1854    42.9675 </r>
       <r>     8.3123     1.5148    43.0707 </r>
       <r>     8.3804     1.4742    43.1711 </r>
       <r>     8.4485     1.1710    43.2509 </r>
       <r>     8.5166     0.9126    43.3130 </r>
       <r>     8.5847     0.8823    43.3731 </r>
       <r>     8.6529     1.0449    43.4443 </r>
       <r>     8.7210     1.2396    43.5287 </r>
       <r>     8.7891     1.3064    43.6177 </r>
       <r>     8.8572     1.2116    43.7003 </r>
       <r>     8.9253     1.0729    43.7734 </r>
       <r>     8.9935     1.0254    43.8432 </r>
       <r>     9.0616     1.0777    43.9166 </r>
       <r>     9.1297     1.1305    43.9936 </r>
       <r>     9.1978     1.1236    44.0702 </r>
       <r>     9.2659     1.1161    44.1462 </r>
       <r>     9.3341     1.1861    44.2270 </r>
       <r>     9.4022     1.2856    44.3146 </r>
       <r>     9.4703     1.2754    44.4015 </r>
       <r>     9.5384     1.1173    44.4776 </r>
       <r>     9.6066     0.9443    44.5419 </r>
       <r>     9.6747     0.9154    44.6043 </r>
       <r>     9.7428     1.0529    44.6760 </r>
       <r>     9.8109     1.2260    44.7595 </r>
       <r>     9.8790     1.2738    44.8463 </r>
       <r>     9.9472     1.1623    44.9254 </r>
       <r>    10.0153     1.0295    44.9956 </r>
       <r>    10.0834     1.0370    45.0662 </r>
       <r>    10.1515     1.1718    45.1460 </r>
       <r>    10.2196     1.2528    45.2314 </r>
       <r>    10.2878     1.1539    45.3100 </r>
       <r>    10.3559     0.9512    45.3748 </r>
       <r>    10.4240     0.8258    45.4310 </r>
       <r>    10.4921     0.8846    45.4913 </r>
       <r>    10.5602     1.0774    45.5647 </r>
       <r>    10.6284     1.2458    45.6496 </r>
       <r>    10.6965     1.2636    45.7356 </r>
       <r>    10.7646     1.1405    45.8133 </r>
       <r>    10.8327     0.9821    45.8802 </r>
       <r>    10.9008     0.8834    45.9404 </r>
       <r>    10.9690     0.8798    46.0003 </r>
       <r>    11.0371     0.9585    46.0656 </r>
       <r>    11.1052     1.0666    46.1383 </r>
       <r>    11.1733     1.1121    46.2140 </r>
       <r>    11.2415     1.0313    46.2843 </r>
       <r>    11.3096     0.8878    46.3448 </r>
       <r>    11.3777     0.8268    46.4011 </r>
       <r>    11.4458     0.8962    46.4622 </r>
       <r>    11.5139     0.9896    46.5296 </r>
       <r>    11.5821     0.9994    46.5976 </r>
       <r>    11.6502     0.9528    46.6626 </r>
       <r>    11.7183     0.9338    46.7262 </r>
       <r>    11.7864     0.9419    46.7903 </r>
       <r>    11.8545     0.9113    46.8524 </r>
       <r>    11.9227     0.8295    46.9089 </r>
       <r>    11.9908     0.7608    46.9607 </r>
       <r>    12.0589     0.7558    47.0122 </r>
       <r>    12.1270     0.8037    47.0670 </r>
       <r>    12.1951     0.8751    47.1266 </r>
       <r>    12.2633     0.9313    47.1900 </r>
       <r>    12.3314     0.9070    47.2518 </r>
       <r>    12.3995     0.7910    47.3057 </r>
       <r>    12.4676     0.6947    47.3530 </r>
       <r>    12.5358     0.7362    47.4032 </r>
       <r>    12.6039     0.8680    47.4623 </r>
       <r>    12.6720     0.9195    47.5249 </r>
       <r>    12.7401     0.8220    47.5809 </r>
       <r>    12.8082     0.6858    47.6276 </r>
       <r>    12.8764     0.6240    47.6702 </r>
       <r>    12.9445     0.6167    47.7122 </r>
       <r>    13.0126     0.5924    47.7525 </r>
       <r>    13.0807     0.5415    47.7894 </r>
       <r>    13.1488     0.4868    47.8226 </r>
       <r>    13.2170     0.4220    47.8513 </r>
       <r>    13.2851     0.3416    47.8746 </r>
       <r>    13.3532     0.2719    47.8931 </r>
       <r>    13.4213     0.2284    47.9087 </r>
       <r>    13.4894     0.2031    47.9225 </r>
       <r>    13.5576     0.1981    47.9360 </r>
       <r>    13.6257     0.2070    47.9501 </r>
       <r>    13.6938     0.1908    47.9631 </r>
       <r>    13.7619     0.1298    47.9719 </r>
       <r>    13.8301     0.0690    47.9766 </r>
       <r>    13.8982     0.0616    47.9808 </r>
       <r>    13.9663     0.0938    47.9872 </r>
       <r>    14.0344     0.1059    47.9944 </r>
       <r>    14.1025     0.0721    47.9994 </r>
       <r>    14.1707     0.0232    48.0009 </r>
       <r>    14.2388    -0.0045    48.0006 </r>
       <r>    14.3069    -0.0078    48.0001 </r>
       <r>    14.3750    -0.0028    47.9999 </r>
       <r>    14.4431     0.0003    47.9999 </r>
       <r>    14.5113     0.0007    48.0000 </r>
       <r>    14.5794     0.0003    48.0000 </r>
       <r>    14.6475     0.0001    48.0000 </r>
       <r>    14.7156     0.0000    48.0000 </r>
       <r>    14.7837     0.0000    48.0000 </r>
       <r>    14.8519     0.0000    48.0000 </r>
       <r>    14.9200     0.0000    48.0000 </r>
       <r>    14.9881     0.0000    48.0000 </r>
       <r>    15.0562     0.0000    48.0000 </r>
       <r>    15.1244     0.0000    48.0000 </r>
       <r>    15.1925     0.0000    48.0000 </r>
       <r>    15.2606     0.0000    48.0000 </r>
       <r>    15.3287     0.0000    48.0000 </r>
       <r>    15.3968     0.0000    48.0000 </r>
       <r>    15.4650     0.0000    48.0000 </r>
       <r>    15.5331     0.0000    48.0000 </r>
       <r>    15.6012     0.0000    48.0000 </r>
       <r>    15.6693     0.0000    48.0000 </r>
       <r>    15.7374     0.0000    48.0000 </r>
       <r>    15.8056     0.0000    48.0000 </r>
       <r>    15.8737     0.0000    48.0000 </r>
       <r>    15.9418     0.0000    48.0000 </r>
       <r>    16.0099     0.0000    48.0000 </r>
      </set>
     </set>
    </array>
   </total>
  </dos>
 </calculation>
 <structure name="finalpos" >
  <crystal>
   <varray name="basis" >
    <v>       3.98000000       0.00000000       0.00000000 </v>
    <v>       0.00000000       3.98000000       0.00000000 </v>
    <v>       0.00000000       0.00000000       3.98000000 </v>
   </varray>
   <i name="volume">     63.04479200 </i>
   <varray name="rec_basis" >
    <v>       0.25125628       0.00000000       0.00000000 </v>
    <v>       0.00000000       0.25125628       0.00000000 </v>
    <v>       0.00000000       0.00000000       0.25125628 </v>
   </varray>
  </crystal>
  <varray name="positions" >
   <v>       0.00000000       0.00000000       0.00000000 </v>
   <v>       0.00000000       0.50000000       0.50000000 </v>
   <v>       0.50000000       0.00000000       0.50000000 </v>
   <v>       0.50000000       0.50000000       0.00000000 </v>
  </varray>
 </structure>
</modeling>
