This job started on
Tue Jan 22 12:57:12 CET 2019
 running on   16 total cores
 distrk:  each k-point on   16 cores,    1 groups
 distr:  one band on    8 cores,    2 groups
 using from now: INCAR     
 vasp.5.4.4.18Apr17-6-g9f103f2a35 (build Apr 17 2018 18:25:23) complex          
  
 POSCAR found :  1 types and       4 ions

 ----------------------------------------------------------------------------- 
|                                                                             |
|  ADVICE TO THIS USER RUNNING 'VASP/VAMP'   (HEAR YOUR MASTER'S VOICE ...):  |
|                                                                             |
|      You enforced a specific xc-type in the INCAR file,                     |
|      a different type was found on the POTCAR file                          |
|          I HOPE YOU KNOW, WHAT YOU ARE  DOING                               |
|                                                                             |
 ----------------------------------------------------------------------------- 

 LDA part: xc-table for Ceperly-Alder, standard interpolation
 POSCAR found :  1 types and       4 ions
 POSCAR, INCAR and KPOINTS ok, starting setup
 FFT: planning ...
 WAVECAR not read
 entering main loop
       N       E                     dE             d eps       ncg     rms          rms(c)
DAV:   1     0.441607597571E+03    0.44161E+03   -0.17280E+04  5776   0.150E+03
DAV:   2     0.367063658395E+01   -0.43794E+03   -0.42559E+03  5768   0.520E+02
DAV:   3    -0.251223195259E+02   -0.28793E+02   -0.27912E+02  8008   0.120E+02
DAV:   4    -0.260141099354E+02   -0.89179E+00   -0.88094E+00  6232   0.278E+01
DAV:   5    -0.260393066269E+02   -0.25197E-01   -0.25187E-01  7072   0.303E+00    0.769E+00
DAV:   6    -0.245333833322E+02    0.15059E+01   -0.36176E+00  7088   0.213E+01    0.222E+00
DAV:   7    -0.243942784764E+02    0.13910E+00   -0.44837E-01  8680   0.672E+00    0.546E-01
DAV:   8    -0.243788656843E+02    0.15413E-01   -0.18355E-02  6056   0.171E+00    0.993E-02
DAV:   9    -0.243785630316E+02    0.30265E-03   -0.17105E-03  7640   0.450E-01    0.229E-02
DAV:  10    -0.243785818192E+02   -0.18788E-04   -0.44716E-05  6432   0.378E-02    0.372E-03
DAV:  11    -0.243785844524E+02   -0.26332E-05   -0.13231E-06  4488   0.117E-02    0.641E-04
DAV:  12    -0.243785842687E+02    0.18364E-06   -0.22823E-07  3176   0.385E-03
   1 F= -.24378584E+02 E0= -.24377204E+02  d E =-.243786E+02
 curvature:   0.00 expect dE= 0.000E+00 dE for cont linesearch  0.000E+00
 trial: gam= 0.00000 g(F)=  0.235E-62 g(S)=  0.000E+00 ort = 0.000E+00 (trialstep = 0.100E+01)
 search vector abs. value=  0.100E-09
 reached required accuracy - stopping structural energy minimisation
 writing wavefunctions
This job finished on
Tue Jan 22 12:57:32 CET 2019
