<?xml version="1.0" encoding="ISO-8859-1"?>
<modeling>
 <generator>
  <i name="program" type="string">vasp </i>
  <i name="version" type="string">5.4.4.18Apr17-6-g9f103f2a35  </i>
  <i name="subversion" type="string">(build Apr 17 2018 18:25:23) complex            parallel </i>
  <i name="platform" type="string">LinuxIFC </i>
  <i name="date" type="string">2019 01 22 </i>
  <i name="time" type="string">12:57:13 </i>
 </generator>
 <incar>
  <i type="string" name="SYSTEM"> Pt bulk calculation</i>
  <i type="int" name="ISTART">     0</i>
  <i type="string" name="PREC">normal</i>
  <i type="string" name="ALGO"> NORMAL</i>
  <i type="int" name="ICHARG">     2</i>
  <i type="int" name="INIWAV">     1</i>
  <i type="int" name="NELMIN">    10</i>
  <i type="int" name="IBRION">     2</i>
  <i name="EDIFF">      0.00000100</i>
  <i name="EDIFFG">     -0.02000000</i>
  <i type="int" name="NSW">    10</i>
  <i name="ENCUT">    450.00000000</i>
  <i name="POTIM">      0.20000000</i>
  <i type="int" name="ISMEAR">     2</i>
  <i name="SIGMA">      0.20000000</i>
  <v type="int" name="KPOINT_BSE">    -1     0     0     0</v>
  <i type="string" name="GGA"> 91</i>
 </incar>
 <structure name="primitive_cell" >
  <crystal>
   <varray name="basis" >
    <v>       1.97500000       1.97500000      -0.00000000 </v>
    <v>       1.97500000       0.00000000      -1.97500000 </v>
    <v>       0.00000000       1.97500000      -1.97500000 </v>
   </varray>
   <i name="volume">     15.40746875 </i>
   <varray name="rec_basis" >
    <v>       0.25316456       0.25316456       0.25316456 </v>
    <v>       0.25316456      -0.25316456      -0.25316456 </v>
    <v>      -0.25316456       0.25316456      -0.25316456 </v>
   </varray>
  </crystal>
  <varray name="positions" >
   <v>       0.00000000       0.00000000       0.00000000 </v>
  </varray>
 </structure>
 <varray name="primitive_index" >
  <v type="int" >        1 </v>
 </varray>
 <kpoints>
  <generation param="Monkhorst-Pack">
   <v type="int" name="divisions">      16       16       16 </v>
   <v name="usershift">      0.00000000       0.00000000       0.00000000 </v>
   <v name="genvec1">      0.06250000       0.00000000       0.00000000 </v>
   <v name="genvec2">      0.00000000       0.06250000       0.00000000 </v>
   <v name="genvec3">      0.00000000       0.00000000       0.06250000 </v>
   <v name="shift">      0.50000000       0.50000000       0.50000000 </v>
  </generation>
  <varray name="kpointlist" >
   <v>       0.03125000       0.03125000       0.03125000 </v>
   <v>       0.09375000       0.03125000       0.03125000 </v>
   <v>       0.15625000       0.03125000       0.03125000 </v>
   <v>       0.21875000       0.03125000       0.03125000 </v>
   <v>       0.28125000       0.03125000       0.03125000 </v>
   <v>       0.34375000       0.03125000       0.03125000 </v>
   <v>       0.40625000       0.03125000       0.03125000 </v>
   <v>       0.46875000       0.03125000       0.03125000 </v>
   <v>       0.09375000       0.09375000       0.03125000 </v>
   <v>       0.15625000       0.09375000       0.03125000 </v>
   <v>       0.21875000       0.09375000       0.03125000 </v>
   <v>       0.28125000       0.09375000       0.03125000 </v>
   <v>       0.34375000       0.09375000       0.03125000 </v>
   <v>       0.40625000       0.09375000       0.03125000 </v>
   <v>       0.46875000       0.09375000       0.03125000 </v>
   <v>       0.15625000       0.15625000       0.03125000 </v>
   <v>       0.21875000       0.15625000       0.03125000 </v>
   <v>       0.28125000       0.15625000       0.03125000 </v>
   <v>       0.34375000       0.15625000       0.03125000 </v>
   <v>       0.40625000       0.15625000       0.03125000 </v>
   <v>       0.46875000       0.15625000       0.03125000 </v>
   <v>       0.21875000       0.21875000       0.03125000 </v>
   <v>       0.28125000       0.21875000       0.03125000 </v>
   <v>       0.34375000       0.21875000       0.03125000 </v>
   <v>       0.40625000       0.21875000       0.03125000 </v>
   <v>       0.46875000       0.21875000       0.03125000 </v>
   <v>       0.28125000       0.28125000       0.03125000 </v>
   <v>       0.34375000       0.28125000       0.03125000 </v>
   <v>       0.40625000       0.28125000       0.03125000 </v>
   <v>       0.46875000       0.28125000       0.03125000 </v>
   <v>       0.34375000       0.34375000       0.03125000 </v>
   <v>       0.40625000       0.34375000       0.03125000 </v>
   <v>       0.46875000       0.34375000       0.03125000 </v>
   <v>       0.40625000       0.40625000       0.03125000 </v>
   <v>       0.46875000       0.40625000       0.03125000 </v>
   <v>       0.46875000       0.46875000       0.03125000 </v>
   <v>       0.09375000       0.09375000       0.09375000 </v>
   <v>       0.15625000       0.09375000       0.09375000 </v>
   <v>       0.21875000       0.09375000       0.09375000 </v>
   <v>       0.28125000       0.09375000       0.09375000 </v>
   <v>       0.34375000       0.09375000       0.09375000 </v>
   <v>       0.40625000       0.09375000       0.09375000 </v>
   <v>       0.46875000       0.09375000       0.09375000 </v>
   <v>       0.15625000       0.15625000       0.09375000 </v>
   <v>       0.21875000       0.15625000       0.09375000 </v>
   <v>       0.28125000       0.15625000       0.09375000 </v>
   <v>       0.34375000       0.15625000       0.09375000 </v>
   <v>       0.40625000       0.15625000       0.09375000 </v>
   <v>       0.46875000       0.15625000       0.09375000 </v>
   <v>       0.21875000       0.21875000       0.09375000 </v>
   <v>       0.28125000       0.21875000       0.09375000 </v>
   <v>       0.34375000       0.21875000       0.09375000 </v>
   <v>       0.40625000       0.21875000       0.09375000 </v>
   <v>       0.46875000       0.21875000       0.09375000 </v>
   <v>       0.28125000       0.28125000       0.09375000 </v>
   <v>       0.34375000       0.28125000       0.09375000 </v>
   <v>       0.40625000       0.28125000       0.09375000 </v>
   <v>       0.46875000       0.28125000       0.09375000 </v>
   <v>       0.34375000       0.34375000       0.09375000 </v>
   <v>       0.40625000       0.34375000       0.09375000 </v>
   <v>       0.46875000       0.34375000       0.09375000 </v>
   <v>       0.40625000       0.40625000       0.09375000 </v>
   <v>       0.46875000       0.40625000       0.09375000 </v>
   <v>       0.46875000       0.46875000       0.09375000 </v>
   <v>       0.15625000       0.15625000       0.15625000 </v>
   <v>       0.21875000       0.15625000       0.15625000 </v>
   <v>       0.28125000       0.15625000       0.15625000 </v>
   <v>       0.34375000       0.15625000       0.15625000 </v>
   <v>       0.40625000       0.15625000       0.15625000 </v>
   <v>       0.46875000       0.15625000       0.15625000 </v>
   <v>       0.21875000       0.21875000       0.15625000 </v>
   <v>       0.28125000       0.21875000       0.15625000 </v>
   <v>       0.34375000       0.21875000       0.15625000 </v>
   <v>       0.40625000       0.21875000       0.15625000 </v>
   <v>       0.46875000       0.21875000       0.15625000 </v>
   <v>       0.28125000       0.28125000       0.15625000 </v>
   <v>       0.34375000       0.28125000       0.15625000 </v>
   <v>       0.40625000       0.28125000       0.15625000 </v>
   <v>       0.46875000       0.28125000       0.15625000 </v>
   <v>       0.34375000       0.34375000       0.15625000 </v>
   <v>       0.40625000       0.34375000       0.15625000 </v>
   <v>       0.46875000       0.34375000       0.15625000 </v>
   <v>       0.40625000       0.40625000       0.15625000 </v>
   <v>       0.46875000       0.40625000       0.15625000 </v>
   <v>       0.46875000       0.46875000       0.15625000 </v>
   <v>       0.21875000       0.21875000       0.21875000 </v>
   <v>       0.28125000       0.21875000       0.21875000 </v>
   <v>       0.34375000       0.21875000       0.21875000 </v>
   <v>       0.40625000       0.21875000       0.21875000 </v>
   <v>       0.46875000       0.21875000       0.21875000 </v>
   <v>       0.28125000       0.28125000       0.21875000 </v>
   <v>       0.34375000       0.28125000       0.21875000 </v>
   <v>       0.40625000       0.28125000       0.21875000 </v>
   <v>       0.46875000       0.28125000       0.21875000 </v>
   <v>       0.34375000       0.34375000       0.21875000 </v>
   <v>       0.40625000       0.34375000       0.21875000 </v>
   <v>       0.46875000       0.34375000       0.21875000 </v>
   <v>       0.40625000       0.40625000       0.21875000 </v>
   <v>       0.46875000       0.40625000       0.21875000 </v>
   <v>       0.46875000       0.46875000       0.21875000 </v>
   <v>       0.28125000       0.28125000       0.28125000 </v>
   <v>       0.34375000       0.28125000       0.28125000 </v>
   <v>       0.40625000       0.28125000       0.28125000 </v>
   <v>       0.46875000       0.28125000       0.28125000 </v>
   <v>       0.34375000       0.34375000       0.28125000 </v>
   <v>       0.40625000       0.34375000       0.28125000 </v>
   <v>       0.46875000       0.34375000       0.28125000 </v>
   <v>       0.40625000       0.40625000       0.28125000 </v>
   <v>       0.46875000       0.40625000       0.28125000 </v>
   <v>       0.46875000       0.46875000       0.28125000 </v>
   <v>       0.34375000       0.34375000       0.34375000 </v>
   <v>       0.40625000       0.34375000       0.34375000 </v>
   <v>       0.46875000       0.34375000       0.34375000 </v>
   <v>       0.40625000       0.40625000       0.34375000 </v>
   <v>       0.46875000       0.40625000       0.34375000 </v>
   <v>       0.46875000       0.46875000       0.34375000 </v>
   <v>       0.40625000       0.40625000       0.40625000 </v>
   <v>       0.46875000       0.40625000       0.40625000 </v>
   <v>       0.46875000       0.46875000       0.40625000 </v>
   <v>       0.46875000       0.46875000       0.46875000 </v>
  </varray>
  <varray name="weights" >
   <v>       0.00195312 </v>
   <v>       0.00585938 </v>
   <v>       0.00585938 </v>
   <v>       0.00585938 </v>
   <v>       0.00585938 </v>
   <v>       0.00585938 </v>
   <v>       0.00585938 </v>
   <v>       0.00585938 </v>
   <v>       0.00585938 </v>
   <v>       0.01171875 </v>
   <v>       0.01171875 </v>
   <v>       0.01171875 </v>
   <v>       0.01171875 </v>
   <v>       0.01171875 </v>
   <v>       0.01171875 </v>
   <v>       0.00585938 </v>
   <v>       0.01171875 </v>
   <v>       0.01171875 </v>
   <v>       0.01171875 </v>
   <v>       0.01171875 </v>
   <v>       0.01171875 </v>
   <v>       0.00585938 </v>
   <v>       0.01171875 </v>
   <v>       0.01171875 </v>
   <v>       0.01171875 </v>
   <v>       0.01171875 </v>
   <v>       0.00585938 </v>
   <v>       0.01171875 </v>
   <v>       0.01171875 </v>
   <v>       0.01171875 </v>
   <v>       0.00585938 </v>
   <v>       0.01171875 </v>
   <v>       0.01171875 </v>
   <v>       0.00585938 </v>
   <v>       0.01171875 </v>
   <v>       0.00585938 </v>
   <v>       0.00195312 </v>
   <v>       0.00585938 </v>
   <v>       0.00585938 </v>
   <v>       0.00585938 </v>
   <v>       0.00585938 </v>
   <v>       0.00585938 </v>
   <v>       0.00585938 </v>
   <v>       0.00585938 </v>
   <v>       0.01171875 </v>
   <v>       0.01171875 </v>
   <v>       0.01171875 </v>
   <v>       0.01171875 </v>
   <v>       0.01171875 </v>
   <v>       0.00585938 </v>
   <v>       0.01171875 </v>
   <v>       0.01171875 </v>
   <v>       0.01171875 </v>
   <v>       0.01171875 </v>
   <v>       0.00585938 </v>
   <v>       0.01171875 </v>
   <v>       0.01171875 </v>
   <v>       0.01171875 </v>
   <v>       0.00585938 </v>
   <v>       0.01171875 </v>
   <v>       0.01171875 </v>
   <v>       0.00585938 </v>
   <v>       0.01171875 </v>
   <v>       0.00585938 </v>
   <v>       0.00195312 </v>
   <v>       0.00585938 </v>
   <v>       0.00585938 </v>
   <v>       0.00585938 </v>
   <v>       0.00585938 </v>
   <v>       0.00585938 </v>
   <v>       0.00585938 </v>
   <v>       0.01171875 </v>
   <v>       0.01171875 </v>
   <v>       0.01171875 </v>
   <v>       0.01171875 </v>
   <v>       0.00585938 </v>
   <v>       0.01171875 </v>
   <v>       0.01171875 </v>
   <v>       0.01171875 </v>
   <v>       0.00585938 </v>
   <v>       0.01171875 </v>
   <v>       0.01171875 </v>
   <v>       0.00585938 </v>
   <v>       0.01171875 </v>
   <v>       0.00585938 </v>
   <v>       0.00195312 </v>
   <v>       0.00585938 </v>
   <v>       0.00585938 </v>
   <v>       0.00585938 </v>
   <v>       0.00585938 </v>
   <v>       0.00585938 </v>
   <v>       0.01171875 </v>
   <v>       0.01171875 </v>
   <v>       0.01171875 </v>
   <v>       0.00585938 </v>
   <v>       0.01171875 </v>
   <v>       0.01171875 </v>
   <v>       0.00585938 </v>
   <v>       0.01171875 </v>
   <v>       0.00585938 </v>
   <v>       0.00195312 </v>
   <v>       0.00585938 </v>
   <v>       0.00585938 </v>
   <v>       0.00585938 </v>
   <v>       0.00585938 </v>
   <v>       0.01171875 </v>
   <v>       0.01171875 </v>
   <v>       0.00585938 </v>
   <v>       0.01171875 </v>
   <v>       0.00585938 </v>
   <v>       0.00195312 </v>
   <v>       0.00585938 </v>
   <v>       0.00585938 </v>
   <v>       0.00585938 </v>
   <v>       0.01171875 </v>
   <v>       0.00585938 </v>
   <v>       0.00195312 </v>
   <v>       0.00585938 </v>
   <v>       0.00585938 </v>
   <v>       0.00195312 </v>
  </varray>
 </kpoints>
 <parameters>
  <separator name="general" >
   <i type="string" name="SYSTEM">Pt bulk calculation</i>
   <i type="logical" name="LCOMPAT"> F  </i>
  </separator>
  <separator name="electronic" >
   <i type="string" name="PREC">normal</i>
   <i name="ENMAX">    450.00000000</i>
   <i name="ENAUG">    358.96600000</i>
   <i name="EDIFF">      0.00000100</i>
   <i type="int" name="IALGO">    38</i>
   <i type="int" name="IWAVPR">    11</i>
   <i type="int" name="NBANDS">    24</i>
   <i name="NELECT">     40.00000000</i>
   <i type="int" name="TURBO">     0</i>
   <i type="int" name="IRESTART">     0</i>
   <i type="int" name="NREBOOT">     0</i>
   <i type="int" name="NMIN">     0</i>
   <i name="EREF">      0.00000000</i>
   <separator name="electronic smearing" >
    <i type="int" name="ISMEAR">     2</i>
    <i name="SIGMA">      0.20000000</i>
    <i name="KSPACING">      0.50000000</i>
    <i type="logical" name="KGAMMA"> T  </i>
   </separator>
   <separator name="electronic projectors" >
    <i type="logical" name="LREAL"> F  </i>
    <v name="ROPT">      0.00000000</v>
    <i type="int" name="LMAXPAW">  -100</i>
    <i type="int" name="LMAXMIX">     2</i>
    <i type="logical" name="NLSPLINE"> F  </i>
   </separator>
   <separator name="electronic startup" >
    <i type="int" name="ISTART">     0</i>
    <i type="int" name="ICHARG">     2</i>
    <i type="int" name="INIWAV">     1</i>
   </separator>
   <separator name="electronic spin" >
    <i type="int" name="ISPIN">     1</i>
    <i type="logical" name="LNONCOLLINEAR"> F  </i>
    <v name="MAGMOM">      1.00000000      1.00000000      1.00000000      1.00000000</v>
    <i name="NUPDOWN">     -1.00000000</i>
    <i type="logical" name="LSORBIT"> F  </i>
    <v name="SAXIS">      0.00000000      0.00000000      1.00000000</v>
    <i type="logical" name="LSPIRAL"> F  </i>
    <v name="QSPIRAL">      0.00000000      0.00000000      0.00000000</v>
    <i type="logical" name="LZEROZ"> F  </i>
   </separator>
   <separator name="electronic exchange-correlation" >
    <i type="logical" name="LASPH"> F  </i>
    <i type="logical" name="LMETAGGA"> F  </i>
   </separator>
   <separator name="electronic convergence" >
    <i type="int" name="NELM">    60</i>
    <i type="int" name="NELMDL">    -5</i>
    <i type="int" name="NELMIN">    10</i>
    <i name="ENINI">    450.00000000</i>
    <separator name="electronic convergence detail" >
     <i type="logical" name="LDIAG"> T  </i>
     <i type="logical" name="LSUBROT"> F  </i>
     <i name="WEIMIN">      0.00100000</i>
     <i name="EBREAK">      0.00000001</i>
     <i name="DEPER">      0.30000000</i>
     <i type="int" name="NRMM">     4</i>
     <i name="TIME">      0.40000000</i>
    </separator>
   </separator>
   <separator name="electronic mixer" >
    <i name="AMIX">      0.40000000</i>
    <i name="BMIX">      1.00000000</i>
    <i name="AMIN">      0.10000000</i>
    <i name="AMIX_MAG">      1.60000000</i>
    <i name="BMIX_MAG">      1.00000000</i>
    <separator name="electronic mixer details" >
     <i type="int" name="IMIX">     4</i>
     <i type="logical" name="MIXFIRST"> F  </i>
     <i type="int" name="MAXMIX">   -45</i>
     <i name="WC">    100.00000000</i>
     <i type="int" name="INIMIX">     1</i>
     <i type="int" name="MIXPRE">     1</i>
     <i type="int" name="MREMOVE">     5</i>
    </separator>
   </separator>
   <separator name="electronic dipolcorrection" >
    <i type="logical" name="LDIPOL"> F  </i>
    <i type="logical" name="LMONO"> F  </i>
    <i type="int" name="IDIPOL">     0</i>
    <i name="EPSILON">      1.00000000</i>
    <v name="DIPOL">   -100.00000000   -100.00000000   -100.00000000</v>
    <i name="EFIELD">      0.00000000</i>
   </separator>
  </separator>
  <separator name="grids" >
   <i type="int" name="NGX">    20</i>
   <i type="int" name="NGY">    20</i>
   <i type="int" name="NGZ">    20</i>
   <i type="int" name="NGXF">    40</i>
   <i type="int" name="NGYF">    40</i>
   <i type="int" name="NGZF">    40</i>
   <i type="logical" name="ADDGRID"> F  </i>
  </separator>
  <separator name="ionic" >
   <i type="int" name="NSW">    10</i>
   <i type="int" name="IBRION">     2</i>
   <i type="int" name="MDALGO">     0</i>
   <i type="int" name="ISIF">     2</i>
   <i name="PSTRESS">      0.00000000</i>
   <i name="EDIFFG">     -0.02000000</i>
   <i type="int" name="NFREE">     1</i>
   <i name="POTIM">      0.20000000</i>
   <i name="SMASS">     -3.00000000</i>
   <i name="SCALEE">      1.00000000</i>
  </separator>
  <separator name="ionic md" >
   <i name="TEBEG">      0.00010000</i>
   <i name="TEEND">      0.00010000</i>
   <i type="int" name="NBLOCK">     1</i>
   <i type="int" name="KBLOCK">    10</i>
   <i type="int" name="NPACO">   256</i>
   <i name="APACO">     16.00000000</i>
  </separator>
  <separator name="symmetry" >
   <i type="int" name="ISYM">     2</i>
   <i name="SYMPREC">      0.00001000</i>
  </separator>
  <separator name="dos" >
   <i type="int" name="LORBIT">     0</i>
   <v name="RWIGS">     -1.00000000</v>
   <i type="int" name="NEDOS">   301</i>
   <i name="EMIN">     10.00000000</i>
   <i name="EMAX">    -10.00000000</i>
   <i name="EFERMI">      0.00000000</i>
  </separator>
  <separator name="writing" >
   <i type="int" name="NWRITE">     2</i>
   <i type="logical" name="LWAVE"> T  </i>
   <i type="logical" name="LDOWNSAMPLE"> F  </i>
   <i type="logical" name="LCHARG"> T  </i>
   <i type="logical" name="LPARD"> F  </i>
   <i type="logical" name="LVTOT"> F  </i>
   <i type="logical" name="LVHAR"> F  </i>
   <i type="logical" name="LELF"> F  </i>
   <i type="logical" name="LOPTICS"> F  </i>
   <v name="STM">      0.00000000      0.00000000      0.00000000      0.00000000      0.00000000      0.00000000      0.00000000</v>
  </separator>
  <separator name="performance" >
   <i type="int" name="NPAR">     2</i>
   <i type="int" name="NSIM">     4</i>
   <i type="int" name="NBLK">    -1</i>
   <i type="logical" name="LPLANE"> T  </i>
   <i type="logical" name="LSCALAPACK"> F  </i>
   <i type="logical" name="LSCAAWARE"> F  </i>
   <i type="logical" name="LSCALU"> F  </i>
   <i type="logical" name="LASYNC"> F  </i>
   <i type="logical" name="LORBITALREAL"> F  </i>
  </separator>
  <separator name="miscellaneous" >
   <i type="int" name="IDIOT">     3</i>
   <i type="int" name="ISPECIAL">     0</i>
   <i type="logical" name="LMUSIC"> F  </i>
   <v name="POMASS">    195.08000000</v>
   <v name="DARWINR">      0.00000000</v>
   <v name="DARWINV">      1.00000000</v>
   <i type="logical" name="LCORR"> T  </i>
  </separator>
  <i type="logical" name="GGA_COMPAT"> T  </i>
  <i type="logical" name="LBERRY"> F  </i>
  <i type="int" name="ICORELEVEL">     0</i>
  <i type="logical" name="LDAU"> F  </i>
  <i type="int" name="I_CONSTRAINED_M">     0</i>
  <separator name="electronic exchange-correlation" >
   <i type="string" name="GGA">91</i>
   <i type="int" name="VOSKOWN">     0</i>
   <i type="logical" name="LHFCALC"> F  </i>
   <i type="string" name="PRECFOCK"></i>
   <i type="logical" name="LSYMGRAD"> F  </i>
   <i type="logical" name="LHFONE"> F  </i>
   <i type="logical" name="LRHFCALC"> F  </i>
   <i type="logical" name="LTHOMAS"> F  </i>
   <i type="logical" name="LMODELHF"> F  </i>
   <i name="ENCUT4O">     -1.00000000</i>
   <i type="int" name="EXXOEP">     0</i>
   <i type="int" name="FOURORBIT">     0</i>
   <i name="AEXX">      0.00000000</i>
   <i name="HFALPHA">      0.00000000</i>
   <i name="MCALPHA">      0.00000000</i>
   <i name="ALDAX">      1.00000000</i>
   <i name="AGGAX">      1.00000000</i>
   <i name="ALDAC">      1.00000000</i>
   <i name="AGGAC">      1.00000000</i>
   <i type="int" name="NKREDX">     1</i>
   <i type="int" name="NKREDY">     1</i>
   <i type="int" name="NKREDZ">     1</i>
   <i type="logical" name="SHIFTRED"> F  </i>
   <i type="logical" name="ODDONLY"> F  </i>
   <i type="logical" name="EVENONLY"> F  </i>
   <i type="int" name="LMAXFOCK">     0</i>
   <i type="int" name="NMAXFOCKAE">     0</i>
   <i type="logical" name="LFOCKAEDFT"> F  </i>
   <i name="HFSCREEN">      0.00000000</i>
   <i name="HFSCREENC">      0.00000000</i>
   <i type="int" name="NBANDSGWLOW">     0</i>
  </separator>
  <separator name="vdW DFT" >
   <i type="logical" name="LUSE_VDW"> F  </i>
   <i name="Zab_VDW">     -0.84910000</i>
   <i name="PARAM1">      0.12340000</i>
   <i name="PARAM2">      1.00000000</i>
   <i name="PARAM3">      0.00000000</i>
  </separator>
  <separator name="model GW" >
   <i type="int" name="MODEL_GW">     0</i>
   <i name="MODEL_EPS0">      9.24448125</i>
   <i name="MODEL_ALPHA">      1.00000000</i>
  </separator>
  <separator name="linear response parameters" >
   <i type="logical" name="LEPSILON"> F  </i>
   <i type="logical" name="LRPA"> F  </i>
   <i type="logical" name="LNABLA"> F  </i>
   <i type="logical" name="LVEL"> F  </i>
   <i type="int" name="KINTER">     0</i>
   <i name="CSHIFT">      0.10000000</i>
   <i name="OMEGAMAX">     -1.00000000</i>
   <i name="DEG_THRESHOLD">      0.00200000</i>
   <i name="RTIME">     -0.10000000</i>
   <i name="WPLASMAI">      0.00000000</i>
   <v name="DFIELD">      0.00000000      0.00000000      0.00000000</v>
   <v name="WPLASMA">      0.00000000      0.00000000      0.00000000      0.00000000      0.00000000      0.00000000      0.00000000      0.00000000      0.00000000</v>
  </separator>
  <separator name="orbital magnetization" >
   <i type="logical" name="NUCIND"> F  </i>
   <v name="MAGPOS">      0.00000000      0.00000000      0.00000000</v>
   <i type="logical" name="LNICSALL"> T  </i>
   <i type="logical" name="ORBITALMAG"> F  </i>
   <i type="logical" name="LMAGBLOCH"> F  </i>
   <i type="logical" name="LCHIMAG"> F  </i>
   <i type="logical" name="LGAUGE"> T  </i>
   <i type="int" name="MAGATOM">     0</i>
   <v name="MAGDIPOL">      0.00000000      0.00000000      0.00000000</v>
   <v name="AVECCONST">      0.00000000      0.00000000      0.00000000</v>
  </separator>
  <separator name="response functions" >
   <i type="logical" name="LADDER"> F  </i>
   <i type="logical" name="LRPAFORCE"> F  </i>
   <i type="logical" name="LFXC"> F  </i>
   <i type="logical" name="LHARTREE"> T  </i>
   <i type="int" name="IBSE">     0</i>
   <v type="int" name="KPOINT">    -1     0     0     0</v>
   <i type="logical" name="LTCTE"> F  </i>
   <i type="logical" name="LTETE"> F  </i>
   <i type="logical" name="LTRIPLET"> F  </i>
   <i type="logical" name="LFXCEPS"> F  </i>
   <i type="logical" name="LFXHEG"> F  </i>
   <i type="int" name="NATURALO">     2</i>
   <i type="logical" name="L2ORDER"> F  </i>
   <i type="logical" name="LMP2LT"> F  </i>
   <i type="logical" name="LUSEW"> F  </i>
   <i name="ENCUTGW">     -2.00000000</i>
   <i name="ENCUTGWSOFT">     -2.00000000</i>
   <i name="ENCUTLF">     -1.00000000</i>
   <i type="int" name="LMAXMP2">    -1</i>
   <i name="SCISSOR">      0.00000000</i>
   <i type="int" name="NOMEGA">     0</i>
   <i type="int" name="NOMEGAR">     0</i>
   <i type="int" name="NBANDSGW">    -1</i>
   <i type="int" name="NBANDSO">    -1</i>
   <i type="int" name="NBANDSV">    -1</i>
   <i type="int" name="NELM">     1</i>
   <i type="int" name="NELMHF">     1</i>
   <i type="int" name="DIM">     3</i>
   <i type="int" name="ANTIRES">     0</i>
   <i name="OMEGAMAX">    -30.00000000</i>
   <i name="OMEGAMIN">    -30.00000000</i>
   <i name="OMEGATL">   -200.00000000</i>
   <i type="int" name="OMEGAGRID">   140</i>
   <i name="CSHIFT">     -0.10000000</i>
   <i type="logical" name="SELFENERGY"> F  </i>
   <i type="logical" name="LSPECTRAL"> F  </i>
   <i type="logical" name="LSPECTRALGW"> F  </i>
   <i type="logical" name="LSINGLES"> F  </i>
   <i type="logical" name="LFERMIGW"> F  </i>
   <i type="logical" name="ODDONLYGW"> F  </i>
   <i type="logical" name="EVENONLYGW"> F  </i>
   <i type="int" name="NKREDLFX">     1</i>
   <i type="int" name="NKREDLFY">     1</i>
   <i type="int" name="NKREDLFZ">     1</i>
   <i type="int" name="MAXMEM">  2800</i>
   <i type="int" name="TELESCOPE">     0</i>
   <i type="int" name="TAUPAR">     1</i>
   <i type="int" name="OMEGAPAR">    -1</i>
   <i name="LAMBDA">      1.00000000</i>
  </separator>
  <separator name="External order field" >
   <i name="OFIELD_KAPPA">      0.00000000</i>
   <v name="OFIELD_K">      0.00000000      0.00000000      0.00000000</v>
   <i name="OFIELD_Q6_NEAR">      0.00000000</i>
   <i name="OFIELD_Q6_FAR">      0.00000000</i>
   <i name="OFIELD_A">      0.00000000</i>
  </separator>
 </parameters>
 <atominfo>
  <atoms>       4 </atoms>
  <types>       1 </types>
  <array name="atoms" >
   <dimension dim="1">ion</dimension>
   <field type="string">element</field>
   <field type="int">atomtype</field>
   <set>
    <rc><c>Pt</c><c>   1</c></rc>
    <rc><c>Pt</c><c>   1</c></rc>
    <rc><c>Pt</c><c>   1</c></rc>
    <rc><c>Pt</c><c>   1</c></rc>
   </set>
  </array>
  <array name="atomtypes" >
   <dimension dim="1">type</dimension>
   <field type="int">atomspertype</field>
   <field type="string">element</field>
   <field>mass</field>
   <field>valence</field>
   <field type="string">pseudopotential</field>
   <set>
    <rc><c>   4</c><c>Pt</c><c>    195.08000000</c><c>     10.00000000</c><c> PAW_PBE Pt 05Jan2001                   </c></rc>
   </set>
  </array>
 </atominfo>
 <structure name="initialpos" >
  <crystal>
   <varray name="basis" >
    <v>       3.95000000       0.00000000       0.00000000 </v>
    <v>       0.00000000       3.95000000       0.00000000 </v>
    <v>       0.00000000       0.00000000       3.95000000 </v>
   </varray>
   <i name="volume">     61.62987500 </i>
   <varray name="rec_basis" >
    <v>       0.25316456       0.00000000       0.00000000 </v>
    <v>       0.00000000       0.25316456       0.00000000 </v>
    <v>       0.00000000       0.00000000       0.25316456 </v>
   </varray>
  </crystal>
  <varray name="positions" >
   <v>       0.00000000       0.00000000       0.00000000 </v>
   <v>       0.00000000       0.50000000       0.50000000 </v>
   <v>       0.50000000       0.00000000       0.50000000 </v>
   <v>       0.50000000       0.50000000       0.00000000 </v>
  </varray>
 </structure>
 <calculation>
  <scstep>
   <time name="dav">    0.96    0.96</time>
   <time name="total">    0.97    1.09</time>
   <energy>
    <i name="alphaZ">    377.72662690 </i>
    <i name="ewald">  -3342.83740542 </i>
    <i name="hartreedc">   -293.69581636 </i>
    <i name="XCdc">     13.89123005 </i>
    <i name="pawpsdc">   2293.79710215 </i>
    <i name="pawaedc">  -2181.03440391 </i>
    <i name="eentropy">     -0.00159504 </i>
    <i name="bandstr">    658.22370872 </i>
    <i name="atom">   2915.53815049 </i>
    <i name="e_fr_energy">    441.60759757 </i>
    <i name="e_wo_entrp">    441.60919261 </i>
    <i name="e_0_energy">    441.60799633 </i>
   </energy>
  </scstep>
  <scstep>
   <time name="dav">    0.96    0.96</time>
   <time name="total">    0.96    0.97</time>
   <energy>
    <i name="e_fr_energy">      3.67063658 </i>
    <i name="e_wo_entrp">      3.67080172 </i>
    <i name="e_0_energy">      3.67067787 </i>
   </energy>
  </scstep>
  <scstep>
   <time name="dav">    1.29    1.29</time>
   <time name="total">    1.30    1.30</time>
   <energy>
    <i name="e_fr_energy">    -25.12231953 </i>
    <i name="e_wo_entrp">    -25.12093797 </i>
    <i name="e_0_energy">    -25.12197414 </i>
   </energy>
  </scstep>
  <scstep>
   <time name="dav">    1.02    1.02</time>
   <time name="total">    1.03    1.03</time>
   <energy>
    <i name="e_fr_energy">    -26.01410994 </i>
    <i name="e_wo_entrp">    -26.01327597 </i>
    <i name="e_0_energy">    -26.01390144 </i>
   </energy>
  </scstep>
  <scstep>
   <time name="dav">    1.13    1.13</time>
   <time name="total">    1.20    1.20</time>
   <energy>
    <i name="e_fr_energy">    -26.03930663 </i>
    <i name="e_wo_entrp">    -26.03849402 </i>
    <i name="e_0_energy">    -26.03910347 </i>
   </energy>
  </scstep>
  <scstep>
   <time name="dav">    1.12    1.12</time>
   <time name="total">    1.19    1.19</time>
   <energy>
    <i name="e_fr_energy">    -24.53338333 </i>
    <i name="e_wo_entrp">    -24.52790473 </i>
    <i name="e_0_energy">    -24.53201368 </i>
   </energy>
  </scstep>
  <scstep>
   <time name="dav">    1.33    1.33</time>
   <time name="total">    1.41    1.41</time>
   <energy>
    <i name="e_fr_energy">    -24.39427848 </i>
    <i name="e_wo_entrp">    -24.38867310 </i>
    <i name="e_0_energy">    -24.39287713 </i>
   </energy>
  </scstep>
  <scstep>
   <time name="dav">    0.98    0.98</time>
   <time name="total">    1.05    1.05</time>
   <energy>
    <i name="e_fr_energy">    -24.37886568 </i>
    <i name="e_wo_entrp">    -24.37335535 </i>
    <i name="e_0_energy">    -24.37748810 </i>
   </energy>
  </scstep>
  <scstep>
   <time name="dav">    1.20    1.20</time>
   <time name="total">    1.27    1.27</time>
   <energy>
    <i name="e_fr_energy">    -24.37856303 </i>
    <i name="e_wo_entrp">    -24.37303405 </i>
    <i name="e_0_energy">    -24.37718079 </i>
   </energy>
  </scstep>
  <scstep>
   <time name="dav">    1.03    1.03</time>
   <time name="total">    1.10    1.10</time>
   <energy>
    <i name="e_fr_energy">    -24.37858182 </i>
    <i name="e_wo_entrp">    -24.37306152 </i>
    <i name="e_0_energy">    -24.37720174 </i>
   </energy>
  </scstep>
  <scstep>
   <time name="dav">    0.81    0.81</time>
   <time name="total">    0.88    0.88</time>
   <energy>
    <i name="e_fr_energy">    -24.37858445 </i>
    <i name="e_wo_entrp">    -24.37306459 </i>
    <i name="e_0_energy">    -24.37720449 </i>
   </energy>
  </scstep>
  <scstep>
   <time name="dav">    0.64    0.64</time>
   <time name="total">    0.66    0.66</time>
   <energy>
    <i name="alphaZ">    377.72662690 </i>
    <i name="ewald">  -3342.83740542 </i>
    <i name="hartreedc">   -253.23467410 </i>
    <i name="XCdc">     12.32060575 </i>
    <i name="pawpsdc">   2395.98828625 </i>
    <i name="pawaedc">  -2293.49187824 </i>
    <i name="eentropy">     -0.00551977 </i>
    <i name="bandstr">    163.61722388 </i>
    <i name="atom">   2915.53815049 </i>
    <i name="e_fr_energy">    -24.37858427 </i>
    <i name="e_wo_entrp">    -24.37306450 </i>
    <i name="e_0_energy">    -24.37720433 </i>
   </energy>
  </scstep>
  <structure>
   <crystal>
    <varray name="basis" >
     <v>       3.95000000       0.00000000       0.00000000 </v>
     <v>       0.00000000       3.95000000       0.00000000 </v>
     <v>       0.00000000       0.00000000       3.95000000 </v>
    </varray>
    <i name="volume">     61.62987500 </i>
    <varray name="rec_basis" >
     <v>       0.25316456       0.00000000       0.00000000 </v>
     <v>       0.00000000       0.25316456       0.00000000 </v>
     <v>       0.00000000       0.00000000       0.25316456 </v>
    </varray>
   </crystal>
   <varray name="positions" >
    <v>       0.00000000       0.00000000       0.00000000 </v>
    <v>       0.00000000       0.50000000       0.50000000 </v>
    <v>       0.50000000       0.00000000       0.50000000 </v>
    <v>       0.50000000       0.50000000       0.00000000 </v>
   </varray>
  </structure>
  <varray name="forces" >
   <v>       0.00000000      -0.00000000      -0.00000000 </v>
   <v>       0.00000000       0.00000000      -0.00000000 </v>
   <v>       0.00000000       0.00000000      -0.00000000 </v>
   <v>      -0.00000000       0.00000000       0.00000000 </v>
  </varray>
  <varray name="stress" >
   <v>      77.61024688      -0.00000000      -0.00000000 </v>
   <v>       0.00000000      77.61024688       0.00000000 </v>
   <v>       0.00000000       0.00000000      77.61024688 </v>
  </varray>
  <energy>
   <i name="e_fr_energy">    -24.37858427 </i>
   <i name="e_wo_entrp">    -24.37720433 </i>
   <i name="e_0_energy">     -0.00551977 </i>
  </energy>
  <time name="totalsc">   14.07   15.36</time>
  <eigenvalues>
   <array>
    <dimension dim="1">band</dimension>
    <dimension dim="2">kpoint</dimension>
    <dimension dim="3">spin</dimension>
    <field>eigene</field>
    <field>occ</field>
    <set>
     <set comment="spin 1">
      <set comment="kpoint 1">
       <r>   -2.3098    1.0000 </r>
       <r>    0.7712    1.0000 </r>
       <r>    0.7712    1.0000 </r>
       <r>    0.7712    1.0000 </r>
       <r>    1.2020    1.0000 </r>
       <r>    1.2020    1.0000 </r>
       <r>    1.2020    1.0000 </r>
       <r>    3.9059    1.0000 </r>
       <r>    3.9389    1.0000 </r>
       <r>    3.9389    1.0000 </r>
       <r>    6.0110    1.0000 </r>
       <r>    6.0110    1.0000 </r>
       <r>    7.5755    0.6340 </r>
       <r>    7.5755    0.6340 </r>
       <r>    7.5755    0.6340 </r>
       <r>    7.8496   -0.0338 </r>
       <r>    7.8496   -0.0338 </r>
       <r>    7.8496   -0.0338 </r>
       <r>    8.0509    0.0039 </r>
       <r>    8.0509    0.0039 </r>
       <r>    8.0509    0.0039 </r>
       <r>    9.6549    0.0000 </r>
       <r>    9.6549    0.0000 </r>
       <r>    9.6549    0.0000 </r>
      </set>
      <set comment="kpoint 2">
       <r>   -2.2068    1.0000 </r>
       <r>    0.8107    1.0000 </r>
       <r>    0.8461    1.0000 </r>
       <r>    0.8461    1.0000 </r>
       <r>    1.2442    1.0000 </r>
       <r>    1.2671    1.0000 </r>
       <r>    1.2671    1.0000 </r>
       <r>    3.8445    1.0000 </r>
       <r>    3.9871    1.0000 </r>
       <r>    3.9911    1.0000 </r>
       <r>    5.9375    1.0000 </r>
       <r>    6.0393    1.0000 </r>
       <r>    7.2781    1.0038 </r>
       <r>    7.2781    1.0038 </r>
       <r>    7.4747    0.9997 </r>
       <r>    7.4747    0.9997 </r>
       <r>    7.5278    0.8502 </r>
       <r>    7.6760    0.1441 </r>
       <r>    7.9338   -0.0015 </r>
       <r>    8.0439    0.0041 </r>
       <r>    8.0439    0.0041 </r>
       <r>    9.1554    0.0000 </r>
       <r>   10.2783    0.0000 </r>
       <r>   10.2783    0.0000 </r>
      </set>
      <set comment="kpoint 3">
       <r>   -2.0033    1.0000 </r>
       <r>    0.8818    1.0000 </r>
       <r>    0.9915    1.0000 </r>
       <r>    0.9915    1.0000 </r>
       <r>    1.3277    1.0000 </r>
       <r>    1.3970    1.0000 </r>
       <r>    1.3970    1.0000 </r>
       <r>    3.7176    1.0000 </r>
       <r>    4.0917    1.0000 </r>
       <r>    4.0950    1.0000 </r>
       <r>    5.7965    1.0000 </r>
       <r>    6.0952    1.0000 </r>
       <r>    6.5825    1.0000 </r>
       <r>    6.5825    1.0000 </r>
       <r>    7.2601    0.9998 </r>
       <r>    7.2601    0.9998 </r>
       <r>    7.3177    1.0175 </r>
       <r>    7.4181    1.0509 </r>
       <r>    7.7335   -0.0099 </r>
       <r>    8.0426    0.0042 </r>
       <r>    8.0426    0.0042 </r>
       <r>    8.4250    0.0000 </r>
       <r>   11.0819    0.0000 </r>
       <r>   11.0819    0.0000 </r>
      </set>
      <set comment="kpoint 4">
       <r>   -1.7043    1.0000 </r>
       <r>    0.9671    1.0000 </r>
       <r>    1.1985    1.0000 </r>
       <r>    1.1985    1.0000 </r>
       <r>    1.4510    1.0000 </r>
       <r>    1.5907    1.0000 </r>
       <r>    1.5907    1.0000 </r>
       <r>    3.5377    1.0000 </r>
       <r>    4.2475    1.0000 </r>
       <r>    4.2498    1.0000 </r>
       <r>    5.6002    1.0000 </r>
       <r>    5.8793    1.0000 </r>
       <r>    5.8793    1.0000 </r>
       <r>    6.1770    1.0000 </r>
       <r>    6.7499    1.0000 </r>
       <r>    6.9612    0.9999 </r>
       <r>    6.9612    0.9999 </r>
       <r>    7.2023    0.9951 </r>
       <r>    7.5265    0.8550 </r>
       <r>    7.7312   -0.0061 </r>
       <r>    8.0424    0.0042 </r>
       <r>    8.0424    0.0042 </r>
       <r>   11.9345    0.0000 </r>
       <r>   11.9345    0.0000 </r>
      </set>
      <set comment="kpoint 5">
       <r>   -1.3190    1.0000 </r>
       <r>    1.0344    1.0000 </r>
       <r>    1.4514    1.0000 </r>
       <r>    1.4514    1.0000 </r>
       <r>    1.6114    1.0000 </r>
       <r>    1.8461    1.0000 </r>
       <r>    1.8461    1.0000 </r>
       <r>    3.3169    1.0000 </r>
       <r>    4.4493    1.0000 </r>
       <r>    4.4539    1.0000 </r>
       <r>    5.2029    1.0000 </r>
       <r>    5.2029    1.0000 </r>
       <r>    5.3700    1.0000 </r>
       <r>    6.0428    1.0000 </r>
       <r>    6.2825    1.0000 </r>
       <r>    6.6041    1.0000 </r>
       <r>    6.6041    1.0000 </r>
       <r>    6.8722    1.0000 </r>
       <r>    7.1682    0.9956 </r>
       <r>    7.3565    1.0356 </r>
       <r>    8.0426    0.0042 </r>
       <r>    8.0426    0.0042 </r>
       <r>   12.7921    0.0000 </r>
       <r>   12.7921    0.0000 </r>
      </set>
      <set comment="kpoint 6">
       <r>   -0.8626    1.0000 </r>
       <r>    1.0321    1.0000 </r>
       <r>    1.7236    1.0000 </r>
       <r>    1.7236    1.0000 </r>
       <r>    1.8054    1.0000 </r>
       <r>    2.1596    1.0000 </r>
       <r>    2.1596    1.0000 </r>
       <r>    3.0679    1.0000 </r>
       <r>    4.5661    1.0000 </r>
       <r>    4.5661    1.0000 </r>
       <r>    4.6765    1.0000 </r>
       <r>    4.7050    1.0000 </r>
       <r>    5.1502    1.0000 </r>
       <r>    5.3792    1.0000 </r>
       <r>    6.2331    1.0000 </r>
       <r>    6.2331    1.0000 </r>
       <r>    6.4086    1.0000 </r>
       <r>    6.4877    1.0000 </r>
       <r>    6.6795    1.0000 </r>
       <r>    7.1966    0.9951 </r>
       <r>    8.0430    0.0042 </r>
       <r>    8.0430    0.0042 </r>
       <r>   13.6091    0.0000 </r>
       <r>   13.6091    0.0000 </r>
      </set>
      <set comment="kpoint 7">
       <r>   -0.3604    1.0000 </r>
       <r>    0.8955    1.0000 </r>
       <r>    1.9698    1.0000 </r>
       <r>    1.9698    1.0000 </r>
       <r>    2.0283    1.0000 </r>
       <r>    2.5288    1.0000 </r>
       <r>    2.5288    1.0000 </r>
       <r>    2.8035    1.0000 </r>
       <r>    3.9762    1.0000 </r>
       <r>    3.9762    1.0000 </r>
       <r>    4.7664    1.0000 </r>
       <r>    4.9024    1.0000 </r>
       <r>    4.9999    1.0000 </r>
       <r>    5.1377    1.0000 </r>
       <r>    5.9120    1.0000 </r>
       <r>    5.9120    1.0000 </r>
       <r>    6.0896    1.0000 </r>
       <r>    6.2279    1.0000 </r>
       <r>    6.5514    1.0000 </r>
       <r>    7.0339    0.9994 </r>
       <r>    8.0433    0.0041 </r>
       <r>    8.0433    0.0041 </r>
       <r>   14.2370    0.0000 </r>
       <r>   14.2370    0.0000 </r>
      </set>
      <set comment="kpoint 8">
       <r>    0.1452    1.0000 </r>
       <r>    0.5887    1.0000 </r>
       <r>    2.1229    1.0000 </r>
       <r>    2.1229    1.0000 </r>
       <r>    2.2741    1.0000 </r>
       <r>    2.5354    1.0000 </r>
       <r>    2.9534    1.0000 </r>
       <r>    2.9534    1.0000 </r>
       <r>    3.4388    1.0000 </r>
       <r>    3.4388    1.0000 </r>
       <r>    4.6685    1.0000 </r>
       <r>    4.6761    1.0000 </r>
       <r>    5.3340    1.0000 </r>
       <r>    5.4321    1.0000 </r>
       <r>    5.7004    1.0000 </r>
       <r>    5.7192    1.0000 </r>
       <r>    5.7192    1.0000 </r>
       <r>    5.8092    1.0000 </r>
       <r>    6.7066    1.0000 </r>
       <r>    6.8691    1.0000 </r>
       <r>    8.0435    0.0041 </r>
       <r>    8.0435    0.0041 </r>
       <r>   14.4292    0.0000 </r>
       <r>   14.4292    0.0000 </r>
      </set>
      <set comment="kpoint 9">
       <r>   -2.1053    1.0000 </r>
       <r>    0.8861    1.0000 </r>
       <r>    0.8861    1.0000 </r>
       <r>    0.9111    1.0000 </r>
       <r>    1.3085    1.0000 </r>
       <r>    1.3085    1.0000 </r>
       <r>    1.3384    1.0000 </r>
       <r>    3.8103    1.0000 </r>
       <r>    4.0115    1.0000 </r>
       <r>    4.0366    1.0000 </r>
       <r>    5.9175    1.0000 </r>
       <r>    6.0215    1.0000 </r>
       <r>    6.9496    0.9999 </r>
       <r>    7.0536    0.9991 </r>
       <r>    7.0536    0.9991 </r>
       <r>    7.3563    1.0355 </r>
       <r>    7.4526    1.0312 </r>
       <r>    7.4526    1.0312 </r>
       <r>    7.9324   -0.0018 </r>
       <r>    7.9324   -0.0018 </r>
       <r>    7.9775    0.0042 </r>
       <r>    9.7920    0.0000 </r>
       <r>    9.7920    0.0000 </r>
       <r>   10.7454    0.0000 </r>
      </set>
      <set comment="kpoint 10">
       <r>   -1.9046    1.0000 </r>
       <r>    0.9585    1.0000 </r>
       <r>    1.0329    1.0000 </r>
       <r>    1.0386    1.0000 </r>
       <r>    1.3904    1.0000 </r>
       <r>    1.4367    1.0000 </r>
       <r>    1.4790    1.0000 </r>
       <r>    3.7033    1.0000 </r>
       <r>    4.1006    1.0000 </r>
       <r>    4.1290    1.0000 </r>
       <r>    5.8006    1.0000 </r>
       <r>    6.0685    1.0000 </r>
       <r>    6.3573    1.0000 </r>
       <r>    6.3950    1.0000 </r>
       <r>    6.6717    1.0000 </r>
       <r>    7.1614    0.9958 </r>
       <r>    7.2604    0.9999 </r>
       <r>    7.3368    1.0262 </r>
       <r>    7.7428   -0.0231 </r>
       <r>    7.9242   -0.0038 </r>
       <r>    7.9370   -0.0008 </r>
       <r>    9.0826    0.0000 </r>
       <r>   10.5636    0.0000 </r>
       <r>   11.4453    0.0000 </r>
      </set>
      <set comment="kpoint 11">
       <r>   -1.6098    1.0000 </r>
       <r>    1.0455    1.0000 </r>
       <r>    1.2232    1.0000 </r>
       <r>    1.2421    1.0000 </r>
       <r>    1.5112    1.0000 </r>
       <r>    1.6279    1.0000 </r>
       <r>    1.6836    1.0000 </r>
       <r>    3.5353    1.0000 </r>
       <r>    4.2501    1.0000 </r>
       <r>    4.2633    1.0000 </r>
       <r>    5.6210    1.0000 </r>
       <r>    5.6670    1.0000 </r>
       <r>    5.7688    1.0000 </r>
       <r>    6.1591    1.0000 </r>
       <r>    6.1603    1.0000 </r>
       <r>    6.8869    1.0000 </r>
       <r>    6.9837    0.9998 </r>
       <r>    7.1074    0.9977 </r>
       <r>    7.5188    0.8829 </r>
       <r>    7.9177   -0.0055 </r>
       <r>    7.9178   -0.0055 </r>
       <r>    8.3731    0.0000 </r>
       <r>   11.3499    0.0000 </r>
       <r>   12.2373    0.0000 </r>
      </set>
      <set comment="kpoint 12">
       <r>   -1.2299    1.0000 </r>
       <r>    1.1145    1.0000 </r>
       <r>    1.4566    1.0000 </r>
       <r>    1.4984    1.0000 </r>
       <r>    1.6682    1.0000 </r>
       <r>    1.8796    1.0000 </r>
       <r>    1.9422    1.0000 </r>
       <r>    3.3243    1.0000 </r>
       <r>    4.4250    1.0000 </r>
       <r>    4.4525    1.0000 </r>
       <r>    5.0094    1.0000 </r>
       <r>    5.1385    1.0000 </r>
       <r>    5.4199    1.0000 </r>
       <r>    5.5808    1.0000 </r>
       <r>    6.2796    1.0000 </r>
       <r>    6.5538    1.0000 </r>
       <r>    6.6456    1.0000 </r>
       <r>    6.7843    1.0000 </r>
       <r>    7.2417    0.9972 </r>
       <r>    7.7968   -0.0515 </r>
       <r>    7.9089   -0.0083 </r>
       <r>    7.9133   -0.0068 </r>
       <r>   12.1025    0.0000 </r>
       <r>   13.0543    0.0000 </r>
      </set>
      <set comment="kpoint 13">
       <r>   -0.7794    1.0000 </r>
       <r>    1.1124    1.0000 </r>
       <r>    1.7235    1.0000 </r>
       <r>    1.7758    1.0000 </r>
       <r>    1.8577    1.0000 </r>
       <r>    2.1878    1.0000 </r>
       <r>    2.2387    1.0000 </r>
       <r>    3.0844    1.0000 </r>
       <r>    4.3963    1.0000 </r>
       <r>    4.5323    1.0000 </r>
       <r>    4.5689    1.0000 </r>
       <r>    4.6990    1.0000 </r>
       <r>    5.0388    1.0000 </r>
       <r>    5.2716    1.0000 </r>
       <r>    6.2053    1.0000 </r>
       <r>    6.2865    1.0000 </r>
       <r>    6.4142    1.0000 </r>
       <r>    6.4249    1.0000 </r>
       <r>    6.8432    1.0000 </r>
       <r>    7.4262    1.0489 </r>
       <r>    7.9052   -0.0095 </r>
       <r>    7.9102   -0.0078 </r>
       <r>   12.7714    0.0000 </r>
       <r>   13.8088    0.0000 </r>
      </set>
      <set comment="kpoint 14">
       <r>   -0.2828    1.0000 </r>
       <r>    0.9734    1.0000 </r>
       <r>    1.9878    1.0000 </r>
       <r>    2.0291    1.0000 </r>
       <r>    2.0751    1.0000 </r>
       <r>    2.5481    1.0000 </r>
       <r>    2.5583    1.0000 </r>
       <r>    2.8285    1.0000 </r>
       <r>    3.8381    1.0000 </r>
       <r>    3.9648    1.0000 </r>
       <r>    4.5797    1.0000 </r>
       <r>    4.6505    1.0000 </r>
       <r>    4.9856    1.0000 </r>
       <r>    5.3244    1.0000 </r>
       <r>    5.9060    1.0000 </r>
       <r>    5.9654    1.0000 </r>
       <r>    6.0319    1.0000 </r>
       <r>    6.3890    1.0000 </r>
       <r>    6.5906    1.0000 </r>
       <r>    7.1788    0.9953 </r>
       <r>    7.9042   -0.0098 </r>
       <r>    7.9079   -0.0086 </r>
       <r>   13.2999    0.0000 </r>
       <r>   14.0550    0.0000 </r>
      </set>
      <set comment="kpoint 15">
       <r>    0.2193    1.0000 </r>
       <r>    0.6632    1.0000 </r>
       <r>    2.1713    1.0000 </r>
       <r>    2.1854    1.0000 </r>
       <r>    2.3144    1.0000 </r>
       <r>    2.5685    1.0000 </r>
       <r>    2.9066    1.0000 </r>
       <r>    2.9535    1.0000 </r>
       <r>    3.3525    1.0000 </r>
       <r>    3.4488    1.0000 </r>
       <r>    4.4797    1.0000 </r>
       <r>    4.4932    1.0000 </r>
       <r>    5.3073    1.0000 </r>
       <r>    5.5895    1.0000 </r>
       <r>    5.6587    1.0000 </r>
       <r>    5.7366    1.0000 </r>
       <r>    5.7592    1.0000 </r>
       <r>    5.9601    1.0000 </r>
       <r>    6.7727    1.0000 </r>
       <r>    6.9681    0.9999 </r>
       <r>    7.9047   -0.0097 </r>
       <r>    7.9061   -0.0092 </r>
       <r>   13.6615    0.0000 </r>
       <r>   13.8991    0.0000 </r>
      </set>
      <set comment="kpoint 16">
       <r>   -1.7095    1.0000 </r>
       <r>    1.1079    1.0000 </r>
       <r>    1.1079    1.0000 </r>
       <r>    1.1358    1.0000 </r>
       <r>    1.5154    1.0000 </r>
       <r>    1.5154    1.0000 </r>
       <r>    1.6348    1.0000 </r>
       <r>    3.6402    1.0000 </r>
       <r>    4.1542    1.0000 </r>
       <r>    4.1971    1.0000 </r>
       <r>    5.7524    1.0000 </r>
       <r>    5.9829    1.0000 </r>
       <r>    5.9829    1.0000 </r>
       <r>    6.0286    1.0000 </r>
       <r>    6.0775    1.0000 </r>
       <r>    6.9843    0.9998 </r>
       <r>    7.1905    0.9951 </r>
       <r>    7.1905    0.9951 </r>
       <r>    7.7155    0.0247 </r>
       <r>    7.7155    0.0247 </r>
       <r>    7.8241   -0.0450 </r>
       <r>    9.8215    0.0000 </r>
       <r>    9.8215    0.0000 </r>
       <r>   12.0432    0.0000 </r>
      </set>
      <set comment="kpoint 17">
       <r>   -1.4231    1.0000 </r>
       <r>    1.1984    1.0000 </r>
       <r>    1.2858    1.0000 </r>
       <r>    1.3213    1.0000 </r>
       <r>    1.6312    1.0000 </r>
       <r>    1.7015    1.0000 </r>
       <r>    1.8512    1.0000 </r>
       <r>    3.5101    1.0000 </r>
       <r>    4.2775    1.0000 </r>
       <r>    4.2921    1.0000 </r>
       <r>    5.3183    1.0000 </r>
       <r>    5.5197    1.0000 </r>
       <r>    5.5418    1.0000 </r>
       <r>    5.6214    1.0000 </r>
       <r>    6.1670    1.0000 </r>
       <r>    6.7431    1.0000 </r>
       <r>    6.9591    0.9999 </r>
       <r>    7.0071    0.9997 </r>
       <r>    7.4586    1.0243 </r>
       <r>    7.6926    0.0866 </r>
       <r>    7.7465   -0.0276 </r>
       <r>    9.0712    0.0000 </r>
       <r>   10.5519    0.0000 </r>
       <r>   12.7598    0.0000 </r>
      </set>
      <set comment="kpoint 18">
       <r>   -1.0539    1.0000 </r>
       <r>    1.2708    1.0000 </r>
       <r>    1.4882    1.0000 </r>
       <r>    1.5842    1.0000 </r>
       <r>    1.7814    1.0000 </r>
       <r>    1.9464    1.0000 </r>
       <r>    2.1086    1.0000 </r>
       <r>    3.3273    1.0000 </r>
       <r>    4.3929    1.0000 </r>
       <r>    4.4648    1.0000 </r>
       <r>    4.6932    1.0000 </r>
       <r>    5.0037    1.0000 </r>
       <r>    5.0286    1.0000 </r>
       <r>    5.4649    1.0000 </r>
       <r>    6.3132    1.0000 </r>
       <r>    6.4507    1.0000 </r>
       <r>    6.6603    1.0000 </r>
       <r>    6.7147    1.0000 </r>
       <r>    7.1669    0.9956 </r>
       <r>    7.6775    0.1385 </r>
       <r>    7.7003    0.0635 </r>
       <r>    8.4191    0.0000 </r>
       <r>   11.2385    0.0000 </r>
       <r>   13.5023    0.0000 </r>
      </set>
      <set comment="kpoint 19">
       <r>   -0.6155    1.0000 </r>
       <r>    1.2690    1.0000 </r>
       <r>    1.7377    1.0000 </r>
       <r>    1.8724    1.0000 </r>
       <r>    1.9619    1.0000 </r>
       <r>    2.2441    1.0000 </r>
       <r>    2.3791    1.0000 </r>
       <r>    3.1103    1.0000 </r>
       <r>    4.1179    1.0000 </r>
       <r>    4.4489    1.0000 </r>
       <r>    4.4602    1.0000 </r>
       <r>    4.5924    1.0000 </r>
       <r>    4.7025    1.0000 </r>
       <r>    5.3737    1.0000 </r>
       <r>    6.1422    1.0000 </r>
       <r>    6.3298    1.0000 </r>
       <r>    6.3614    1.0000 </r>
       <r>    6.4974    1.0000 </r>
       <r>    6.8182    1.0000 </r>
       <r>    7.6676    0.1768 </r>
       <r>    7.6749    0.1481 </r>
       <r>    7.9089   -0.0083 </r>
       <r>   11.8497    0.0000 </r>
       <r>   13.6778    0.0000 </r>
      </set>
      <set comment="kpoint 20">
       <r>   -0.1308    1.0000 </r>
       <r>    1.1243    1.0000 </r>
       <r>    2.0155    1.0000 </r>
       <r>    2.1421    1.0000 </r>
       <r>    2.1679    1.0000 </r>
       <r>    2.5857    1.0000 </r>
       <r>    2.6266    1.0000 </r>
       <r>    2.8743    1.0000 </r>
       <r>    3.6074    1.0000 </r>
       <r>    3.9385    1.0000 </r>
       <r>    4.3056    1.0000 </r>
       <r>    4.3961    1.0000 </r>
       <r>    4.9811    1.0000 </r>
       <r>    5.4482    1.0000 </r>
       <r>    5.8813    1.0000 </r>
       <r>    5.9917    1.0000 </r>
       <r>    6.0203    1.0000 </r>
       <r>    6.4225    1.0000 </r>
       <r>    6.7112    1.0000 </r>
       <r>    7.5247    0.8617 </r>
       <r>    7.6612    0.2034 </r>
       <r>    7.6624    0.1986 </r>
       <r>   12.3604    0.0000 </r>
       <r>   13.3871    0.0000 </r>
      </set>
      <set comment="kpoint 21">
       <r>    0.3633    1.0000 </r>
       <r>    0.8071    1.0000 </r>
       <r>    2.2554    1.0000 </r>
       <r>    2.3078    1.0000 </r>
       <r>    2.3936    1.0000 </r>
       <r>    2.6319    1.0000 </r>
       <r>    2.8397    1.0000 </r>
       <r>    2.9336    1.0000 </r>
       <r>    3.2239    1.0000 </r>
       <r>    3.4609    1.0000 </r>
       <r>    4.2160    1.0000 </r>
       <r>    4.2798    1.0000 </r>
       <r>    5.2924    1.0000 </r>
       <r>    5.6312    1.0000 </r>
       <r>    5.6878    1.0000 </r>
       <r>    5.7498    1.0000 </r>
       <r>    5.8029    1.0000 </r>
       <r>    6.0292    1.0000 </r>
       <r>    6.9506    0.9999 </r>
       <r>    7.2172    0.9954 </r>
       <r>    7.6576    0.2192 </r>
       <r>    7.6577    0.2186 </r>
       <r>   12.7660    0.0000 </r>
       <r>   13.0928    0.0000 </r>
      </set>
      <set comment="kpoint 22">
       <r>   -1.1491    1.0000 </r>
       <r>    1.3970    1.0000 </r>
       <r>    1.4175    1.0000 </r>
       <r>    1.4175    1.0000 </r>
       <r>    1.8100    1.0000 </r>
       <r>    1.8100    1.0000 </r>
       <r>    2.0715    1.0000 </r>
       <r>    3.4360    1.0000 </r>
       <r>    4.3322    1.0000 </r>
       <r>    4.3614    1.0000 </r>
       <r>    4.9032    1.0000 </r>
       <r>    4.9032    1.0000 </r>
       <r>    5.2060    1.0000 </r>
       <r>    5.5529    1.0000 </r>
       <r>    6.2594    1.0000 </r>
       <r>    6.5409    1.0000 </r>
       <r>    6.8345    1.0000 </r>
       <r>    6.8345    1.0000 </r>
       <r>    7.4049    1.0515 </r>
       <r>    7.4049    1.0515 </r>
       <r>    7.5946    0.5345 </r>
       <r>    9.7553    0.0000 </r>
       <r>    9.7553    0.0000 </r>
       <r>   13.3959    0.0000 </r>
      </set>
      <set comment="kpoint 23">
       <r>   -0.7960    1.0000 </r>
       <r>    1.4951    1.0000 </r>
       <r>    1.5612    1.0000 </r>
       <r>    1.6891    1.0000 </r>
       <r>    1.9502    1.0000 </r>
       <r>    2.0452    1.0000 </r>
       <r>    2.3198    1.0000 </r>
       <r>    3.3059    1.0000 </r>
       <r>    4.3259    1.0000 </r>
       <r>    4.3672    1.0000 </r>
       <r>    4.4848    1.0000 </r>
       <r>    4.5140    1.0000 </r>
       <r>    4.7928    1.0000 </r>
       <r>    5.4431    1.0000 </r>
       <r>    6.2948    1.0000 </r>
       <r>    6.4374    1.0000 </r>
       <r>    6.5892    1.0000 </r>
       <r>    6.5973    1.0000 </r>
       <r>    7.0837    0.9984 </r>
       <r>    7.3703    1.0418 </r>
       <r>    7.4838    0.9817 </r>
       <r>    9.0489    0.0000 </r>
       <r>   10.3994    0.0000 </r>
       <r>   13.4316    0.0000 </r>
      </set>
      <set comment="kpoint 24">
       <r>   -0.3766    1.0000 </r>
       <r>    1.4928    1.0000 </r>
       <r>    1.7785    1.0000 </r>
       <r>    1.9920    1.0000 </r>
       <r>    2.1169    1.0000 </r>
       <r>    2.3292    1.0000 </r>
       <r>    2.5605    1.0000 </r>
       <r>    3.1323    1.0000 </r>
       <r>    3.7980    1.0000 </r>
       <r>    4.1415    1.0000 </r>
       <r>    4.3428    1.0000 </r>
       <r>    4.3536    1.0000 </r>
       <r>    4.7276    1.0000 </r>
       <r>    5.3816    1.0000 </r>
       <r>    6.0342    1.0000 </r>
       <r>    6.2804    1.0000 </r>
       <r>    6.3012    1.0000 </r>
       <r>    6.6730    1.0000 </r>
       <r>    6.7323    1.0000 </r>
       <r>    7.3502    1.0326 </r>
       <r>    7.4116    1.0516 </r>
       <r>    8.4642    0.0000 </r>
       <r>   10.9812    0.0000 </r>
       <r>   13.0031    0.0000 </r>
      </set>
      <set comment="kpoint 25">
       <r>    0.0891    1.0000 </r>
       <r>    1.3376    1.0000 </r>
       <r>    2.0442    1.0000 </r>
       <r>    2.2901    1.0000 </r>
       <r>    2.3047    1.0000 </r>
       <r>    2.6411    1.0000 </r>
       <r>    2.7403    1.0000 </r>
       <r>    2.9322    1.0000 </r>
       <r>    3.3406    1.0000 </r>
       <r>    3.8910    1.0000 </r>
       <r>    3.9587    1.0000 </r>
       <r>    4.2504    1.0000 </r>
       <r>    4.9866    1.0000 </r>
       <r>    5.4543    1.0000 </r>
       <r>    5.8182    1.0000 </r>
       <r>    5.9346    1.0000 </r>
       <r>    6.0175    1.0000 </r>
       <r>    6.3568    1.0000 </r>
       <r>    6.9482    0.9999 </r>
       <r>    7.3399    1.0277 </r>
       <r>    7.3689    1.0412 </r>
       <r>    7.9915    0.0048 </r>
       <r>   11.4848    0.0000 </r>
       <r>   12.6267    0.0000 </r>
      </set>
      <set comment="kpoint 26">
       <r>    0.5686    1.0000 </r>
       <r>    1.0097    1.0000 </r>
       <r>    2.3357    1.0000 </r>
       <r>    2.4841    1.0000 </r>
       <r>    2.5080    1.0000 </r>
       <r>    2.7202    1.0000 </r>
       <r>    2.8058    1.0000 </r>
       <r>    2.8322    1.0000 </r>
       <r>    3.1432    1.0000 </r>
       <r>    3.4672    1.0000 </r>
       <r>    3.9626    1.0000 </r>
       <r>    4.0911    1.0000 </r>
       <r>    5.2776    1.0000 </r>
       <r>    5.5950    1.0000 </r>
       <r>    5.6712    1.0000 </r>
       <r>    5.7255    1.0000 </r>
       <r>    5.8021    1.0000 </r>
       <r>    5.9884    1.0000 </r>
       <r>    7.2559    0.9991 </r>
       <r>    7.3382    1.0268 </r>
       <r>    7.3465    1.0308 </r>
       <r>    7.5986    0.5134 </r>
       <r>   11.9098    0.0000 </r>
       <r>   12.2772    0.0000 </r>
      </set>
      <set comment="kpoint 27">
       <r>   -0.4644    1.0000 </r>
       <r>    1.6819    1.0000 </r>
       <r>    1.7736    1.0000 </r>
       <r>    1.7736    1.0000 </r>
       <r>    2.1728    1.0000 </r>
       <r>    2.1728    1.0000 </r>
       <r>    2.5494    1.0000 </r>
       <r>    3.2423    1.0000 </r>
       <r>    3.9735    1.0000 </r>
       <r>    3.9735    1.0000 </r>
       <r>    4.3413    1.0000 </r>
       <r>    4.5100    1.0000 </r>
       <r>    4.6214    1.0000 </r>
       <r>    5.3646    1.0000 </r>
       <r>    6.0956    1.0000 </r>
       <r>    6.4100    1.0000 </r>
       <r>    6.4100    1.0000 </r>
       <r>    6.6593    1.0000 </r>
       <r>    7.0238    0.9995 </r>
       <r>    7.0238    0.9995 </r>
       <r>    7.2998    1.0104 </r>
       <r>    9.6536    0.0000 </r>
       <r>    9.6536    0.0000 </r>
       <r>   12.8588    0.0000 </r>
      </set>
      <set comment="kpoint 28">
       <r>   -0.0710    1.0000 </r>
       <r>    1.7676    1.0000 </r>
       <r>    1.8527    1.0000 </r>
       <r>    2.0859    1.0000 </r>
       <r>    2.3214    1.0000 </r>
       <r>    2.4430    1.0000 </r>
       <r>    2.7593    1.0000 </r>
       <r>    3.1334    1.0000 </r>
       <r>    3.5063    1.0000 </r>
       <r>    3.7201    1.0000 </r>
       <r>    4.1746    1.0000 </r>
       <r>    4.2806    1.0000 </r>
       <r>    4.7905    1.0000 </r>
       <r>    5.3124    1.0000 </r>
       <r>    5.8799    1.0000 </r>
       <r>    6.1419    1.0000 </r>
       <r>    6.1703    1.0000 </r>
       <r>    6.6553    1.0000 </r>
       <r>    6.9484    0.9999 </r>
       <r>    6.9911    0.9998 </r>
       <r>    7.1621    0.9958 </r>
       <r>    9.0227    0.0000 </r>
       <r>   10.2119    0.0000 </r>
       <r>   12.3583    0.0000 </r>
      </set>
      <set comment="kpoint 29">
       <r>    0.3665    1.0000 </r>
       <r>    1.5933    1.0000 </r>
       <r>    2.0743    1.0000 </r>
       <r>    2.4045    1.0000 </r>
       <r>    2.4825    1.0000 </r>
       <r>    2.7293    1.0000 </r>
       <r>    2.8906    1.0000 </r>
       <r>    2.9892    1.0000 </r>
       <r>    3.1086    1.0000 </r>
       <r>    3.6493    1.0000 </r>
       <r>    3.8155    1.0000 </r>
       <r>    4.1448    1.0000 </r>
       <r>    5.0056    1.0000 </r>
       <r>    5.3795    1.0000 </r>
       <r>    5.7023    1.0000 </r>
       <r>    5.8322    1.0000 </r>
       <r>    5.9213    1.0000 </r>
       <r>    6.2762    1.0000 </r>
       <r>    6.9793    0.9998 </r>
       <r>    7.0694    0.9988 </r>
       <r>    7.2808    1.0045 </r>
       <r>    8.4963    0.0000 </r>
       <r>   10.7103    0.0000 </r>
       <r>   11.9319    0.0000 </r>
      </set>
      <set comment="kpoint 30">
       <r>    0.8218    1.0000 </r>
       <r>    1.2529    1.0000 </r>
       <r>    2.3449    1.0000 </r>
       <r>    2.6402    1.0000 </r>
       <r>    2.6521    1.0000 </r>
       <r>    2.7063    1.0000 </r>
       <r>    2.8244    1.0000 </r>
       <r>    2.8751    1.0000 </r>
       <r>    3.1369    1.0000 </r>
       <r>    3.4616    1.0000 </r>
       <r>    3.7538    1.0000 </r>
       <r>    3.9476    1.0000 </r>
       <r>    5.2499    1.0000 </r>
       <r>    5.5262    1.0000 </r>
       <r>    5.5933    1.0000 </r>
       <r>    5.6367    1.0000 </r>
       <r>    5.7212    1.0000 </r>
       <r>    5.9097    1.0000 </r>
       <r>    6.9858    0.9998 </r>
       <r>    7.0136    0.9996 </r>
       <r>    7.6460    0.2715 </r>
       <r>    8.0463    0.0040 </r>
       <r>   11.1483    0.0000 </r>
       <r>   11.5435    0.0000 </r>
      </set>
      <set comment="kpoint 31">
       <r>    0.2892    1.0000 </r>
       <r>    1.9636    1.0000 </r>
       <r>    2.0652    1.0000 </r>
       <r>    2.0652    1.0000 </r>
       <r>    2.5719    1.0000 </r>
       <r>    2.5719    1.0000 </r>
       <r>    2.9400    1.0000 </r>
       <r>    3.1004    1.0000 </r>
       <r>    3.3477    1.0000 </r>
       <r>    3.3477    1.0000 </r>
       <r>    3.9582    1.0000 </r>
       <r>    4.1996    1.0000 </r>
       <r>    4.8943    1.0000 </r>
       <r>    5.2561    1.0000 </r>
       <r>    5.6990    1.0000 </r>
       <r>    5.9467    1.0000 </r>
       <r>    5.9467    1.0000 </r>
       <r>    6.6136    1.0000 </r>
       <r>    6.6136    1.0000 </r>
       <r>    6.9533    0.9999 </r>
       <r>    7.2891    1.0069 </r>
       <r>    9.5556    0.0000 </r>
       <r>    9.5556    0.0000 </r>
       <r>   11.8063    0.0000 </r>
      </set>
      <set comment="kpoint 32">
       <r>    0.6879    1.0000 </r>
       <r>    1.8568    1.0000 </r>
       <r>    2.1108    1.0000 </r>
       <r>    2.3300    1.0000 </r>
       <r>    2.6956    1.0000 </r>
       <r>    2.8574    1.0000 </r>
       <r>    3.0306    1.0000 </r>
       <r>    3.0485    1.0000 </r>
       <r>    3.0566    1.0000 </r>
       <r>    3.4044    1.0000 </r>
       <r>    3.7074    1.0000 </r>
       <r>    4.0609    1.0000 </r>
       <r>    5.0173    1.0000 </r>
       <r>    5.3303    1.0000 </r>
       <r>    5.5422    1.0000 </r>
       <r>    5.6727    1.0000 </r>
       <r>    5.7326    1.0000 </r>
       <r>    6.2337    1.0000 </r>
       <r>    6.6061    1.0000 </r>
       <r>    6.7965    1.0000 </r>
       <r>    7.6690    0.1712 </r>
       <r>    8.9995    0.0000 </r>
       <r>   10.0476    0.0000 </r>
       <r>   11.3377    0.0000 </r>
      </set>
      <set comment="kpoint 33">
       <r>    1.1043    1.0000 </r>
       <r>    1.5096    1.0000 </r>
       <r>    2.2837    1.0000 </r>
       <r>    2.4192    1.0000 </r>
       <r>    2.8163    1.0000 </r>
       <r>    2.9318    1.0000 </r>
       <r>    2.9515    1.0000 </r>
       <r>    3.0331    1.0000 </r>
       <r>    3.1574    1.0000 </r>
       <r>    3.4398    1.0000 </r>
       <r>    3.6067    1.0000 </r>
       <r>    3.8493    1.0000 </r>
       <r>    5.1761    1.0000 </r>
       <r>    5.4011    1.0000 </r>
       <r>    5.4820    1.0000 </r>
       <r>    5.5565    1.0000 </r>
       <r>    5.5569    1.0000 </r>
       <r>    5.8721    1.0000 </r>
       <r>    6.6306    1.0000 </r>
       <r>    6.6913    1.0000 </r>
       <r>    8.0771    0.0029 </r>
       <r>    8.5155    0.0000 </r>
       <r>   10.4961    0.0000 </r>
       <r>   10.9154    0.0000 </r>
      </set>
      <set comment="kpoint 34">
       <r>    1.0367    1.0000 </r>
       <r>    2.0735    1.0000 </r>
       <r>    2.0735    1.0000 </r>
       <r>    2.1552    1.0000 </r>
       <r>    2.9287    1.0000 </r>
       <r>    2.9287    1.0000 </r>
       <r>    3.0445    1.0000 </r>
       <r>    3.1658    1.0000 </r>
       <r>    3.2567    1.0000 </r>
       <r>    3.2567    1.0000 </r>
       <r>    3.5690    1.0000 </r>
       <r>    3.9524    1.0000 </r>
       <r>    5.0102    1.0000 </r>
       <r>    5.3831    1.0000 </r>
       <r>    5.4164    1.0000 </r>
       <r>    5.4893    1.0000 </r>
       <r>    5.4893    1.0000 </r>
       <r>    6.2406    1.0000 </r>
       <r>    6.2406    1.0000 </r>
       <r>    6.5713    1.0000 </r>
       <r>    8.0871    0.0025 </r>
       <r>    9.4819    0.0000 </r>
       <r>    9.4819    0.0000 </r>
       <r>   10.8323    0.0000 </r>
      </set>
      <set comment="kpoint 35">
       <r>    1.3953    1.0000 </r>
       <r>    1.7472    1.0000 </r>
       <r>    2.1854    1.0000 </r>
       <r>    2.1937    1.0000 </r>
       <r>    2.9847    1.0000 </r>
       <r>    3.0272    1.0000 </r>
       <r>    3.1258    1.0000 </r>
       <r>    3.1935    1.0000 </r>
       <r>    3.2557    1.0000 </r>
       <r>    3.4087    1.0000 </r>
       <r>    3.5242    1.0000 </r>
       <r>    3.7717    1.0000 </r>
       <r>    5.0764    1.0000 </r>
       <r>    5.2501    1.0000 </r>
       <r>    5.2999    1.0000 </r>
       <r>    5.3434    1.0000 </r>
       <r>    5.6210    1.0000 </r>
       <r>    5.9043    1.0000 </r>
       <r>    6.2959    1.0000 </r>
       <r>    6.4043    1.0000 </r>
       <r>    8.5243    0.0000 </r>
       <r>    8.9837    0.0000 </r>
       <r>    9.9384    0.0000 </r>
       <r>   10.3792    0.0000 </r>
      </set>
      <set comment="kpoint 36">
       <r>    1.6768    1.0000 </r>
       <r>    1.9397    1.0000 </r>
       <r>    1.9397    1.0000 </r>
       <r>    2.0835    1.0000 </r>
       <r>    3.0968    1.0000 </r>
       <r>    3.1328    1.0000 </r>
       <r>    3.1328    1.0000 </r>
       <r>    3.2297    1.0000 </r>
       <r>    3.4297    1.0000 </r>
       <r>    3.4814    1.0000 </r>
       <r>    3.4814    1.0000 </r>
       <r>    3.6623    1.0000 </r>
       <r>    5.0486    1.0000 </r>
       <r>    5.1488    1.0000 </r>
       <r>    5.1488    1.0000 </r>
       <r>    5.1653    1.0000 </r>
       <r>    5.7744    1.0000 </r>
       <r>    6.0040    1.0000 </r>
       <r>    6.0040    1.0000 </r>
       <r>    6.1714    1.0000 </r>
       <r>    8.9780    0.0000 </r>
       <r>    9.4429    0.0000 </r>
       <r>    9.4429    0.0000 </r>
       <r>    9.9003    0.0000 </r>
      </set>
      <set comment="kpoint 37">
       <r>   -2.0054    1.0000 </r>
       <r>    0.9510    1.0000 </r>
       <r>    0.9510    1.0000 </r>
       <r>    0.9510    1.0000 </r>
       <r>    1.3796    1.0000 </r>
       <r>    1.3796    1.0000 </r>
       <r>    1.3796    1.0000 </r>
       <r>    3.7825    1.0000 </r>
       <r>    4.0544    1.0000 </r>
       <r>    4.0544    1.0000 </r>
       <r>    5.9543    1.0000 </r>
       <r>    5.9543    1.0000 </r>
       <r>    6.7489    1.0000 </r>
       <r>    6.7489    1.0000 </r>
       <r>    6.7489    1.0000 </r>
       <r>    7.2530    0.9987 </r>
       <r>    7.2530    0.9987 </r>
       <r>    7.2530    0.9987 </r>
       <r>    7.9343   -0.0014 </r>
       <r>    7.9343   -0.0014 </r>
       <r>    7.9343   -0.0014 </r>
       <r>   10.2406    0.0000 </r>
       <r>   10.2406    0.0000 </r>
       <r>   10.2406    0.0000 </r>
      </set>
      <set comment="kpoint 38">
       <r>   -1.8081    1.0000 </r>
       <r>    1.0229    1.0000 </r>
       <r>    1.0780    1.0000 </r>
       <r>    1.0780    1.0000 </r>
       <r>    1.4611    1.0000 </r>
       <r>    1.5197    1.0000 </r>
       <r>    1.5197    1.0000 </r>
       <r>    3.6913    1.0000 </r>
       <r>    4.1273    1.0000 </r>
       <r>    4.1401    1.0000 </r>
       <r>    5.8273    1.0000 </r>
       <r>    6.0268    1.0000 </r>
       <r>    6.1938    1.0000 </r>
       <r>    6.1938    1.0000 </r>
       <r>    6.3739    1.0000 </r>
       <r>    7.0590    0.9990 </r>
       <r>    7.0725    0.9987 </r>
       <r>    7.0725    0.9987 </r>
       <r>    7.8501   -0.0335 </r>
       <r>    7.9021   -0.0106 </r>
       <r>    7.9021   -0.0106 </r>
       <r>    9.4981    0.0000 </r>
       <r>   10.8992    0.0000 </r>
       <r>   10.8992    0.0000 </r>
      </set>
      <set comment="kpoint 39">
       <r>   -1.5183    1.0000 </r>
       <r>    1.1092    1.0000 </r>
       <r>    1.2621    1.0000 </r>
       <r>    1.2621    1.0000 </r>
       <r>    1.5813    1.0000 </r>
       <r>    1.7237    1.0000 </r>
       <r>    1.7237    1.0000 </r>
       <r>    3.5369    1.0000 </r>
       <r>    4.2551    1.0000 </r>
       <r>    4.2681    1.0000 </r>
       <r>    5.5747    1.0000 </r>
       <r>    5.5747    1.0000 </r>
       <r>    5.6581    1.0000 </r>
       <r>    5.8754    1.0000 </r>
       <r>    6.1326    1.0000 </r>
       <r>    6.7953    1.0000 </r>
       <r>    6.8411    1.0000 </r>
       <r>    6.8411    1.0000 </r>
       <r>    7.7291   -0.0024 </r>
       <r>    7.8628   -0.0274 </r>
       <r>    7.8628   -0.0274 </r>
       <r>    8.7170    0.0000 </r>
       <r>   11.6220    0.0000 </r>
       <r>   11.6220    0.0000 </r>
      </set>
      <set comment="kpoint 40">
       <r>   -1.1447    1.0000 </r>
       <r>    1.1773    1.0000 </r>
       <r>    1.4956    1.0000 </r>
       <r>    1.4956    1.0000 </r>
       <r>    1.7369    1.0000 </r>
       <r>    1.9803    1.0000 </r>
       <r>    1.9803    1.0000 </r>
       <r>    3.3374    1.0000 </r>
       <r>    4.4078    1.0000 </r>
       <r>    4.4376    1.0000 </r>
       <r>    4.9610    1.0000 </r>
       <r>    4.9610    1.0000 </r>
       <r>    5.3284    1.0000 </r>
       <r>    5.4849    1.0000 </r>
       <r>    6.2683    1.0000 </r>
       <r>    6.4855    1.0000 </r>
       <r>    6.5472    1.0000 </r>
       <r>    6.5472    1.0000 </r>
       <r>    7.5769    0.6266 </r>
       <r>    7.8319   -0.0418 </r>
       <r>    7.8319   -0.0418 </r>
       <r>    7.9836    0.0045 </r>
       <r>   12.3337    0.0000 </r>
       <r>   12.3337    0.0000 </r>
      </set>
      <set comment="kpoint 41">
       <r>   -0.7018    1.0000 </r>
       <r>    1.1742    1.0000 </r>
       <r>    1.7648    1.0000 </r>
       <r>    1.7648    1.0000 </r>
       <r>    1.9232    1.0000 </r>
       <r>    2.2704    1.0000 </r>
       <r>    2.2704    1.0000 </r>
       <r>    3.1081    1.0000 </r>
       <r>    4.3809    1.0000 </r>
       <r>    4.3809    1.0000 </r>
       <r>    4.5157    1.0000 </r>
       <r>    4.6471    1.0000 </r>
       <r>    4.8314    1.0000 </r>
       <r>    5.3962    1.0000 </r>
       <r>    6.1520    1.0000 </r>
       <r>    6.2237    1.0000 </r>
       <r>    6.2237    1.0000 </r>
       <r>    6.4293    1.0000 </r>
       <r>    7.3244    1.0204 </r>
       <r>    7.4007    1.0510 </r>
       <r>    7.8118   -0.0489 </r>
       <r>    7.8118   -0.0489 </r>
       <r>   12.9658    0.0000 </r>
       <r>   12.9658    0.0000 </r>
      </set>
      <set comment="kpoint 42">
       <r>   -0.2131    1.0000 </r>
       <r>    1.0336    1.0000 </r>
       <r>    2.0374    1.0000 </r>
       <r>    2.0374    1.0000 </r>
       <r>    2.1350    1.0000 </r>
       <r>    2.5690    1.0000 </r>
       <r>    2.5690    1.0000 </r>
       <r>    2.8624    1.0000 </r>
       <r>    3.8563    1.0000 </r>
       <r>    3.8563    1.0000 </r>
       <r>    4.4881    1.0000 </r>
       <r>    4.4888    1.0000 </r>
       <r>    4.8941    1.0000 </r>
       <r>    5.5123    1.0000 </r>
       <r>    5.8132    1.0000 </r>
       <r>    5.9313    1.0000 </r>
       <r>    5.9313    1.0000 </r>
       <r>    6.6104    1.0000 </r>
       <r>    6.7427    1.0000 </r>
       <r>    7.2080    0.9952 </r>
       <r>    7.8002   -0.0512 </r>
       <r>    7.8002   -0.0512 </r>
       <r>   13.4305    0.0000 </r>
       <r>   13.4305    0.0000 </r>
      </set>
      <set comment="kpoint 43">
       <r>    0.2824    1.0000 </r>
       <r>    0.7230    1.0000 </r>
       <r>    2.2316    1.0000 </r>
       <r>    2.2316    1.0000 </r>
       <r>    2.3667    1.0000 </r>
       <r>    2.6119    1.0000 </r>
       <r>    2.8457    1.0000 </r>
       <r>    2.8457    1.0000 </r>
       <r>    3.4379    1.0000 </r>
       <r>    3.4379    1.0000 </r>
       <r>    4.3530    1.0000 </r>
       <r>    4.3881    1.0000 </r>
       <r>    5.1749    1.0000 </r>
       <r>    5.4839    1.0000 </r>
       <r>    5.7508    1.0000 </r>
       <r>    5.7508    1.0000 </r>
       <r>    5.8177    1.0000 </r>
       <r>    6.2381    1.0000 </r>
       <r>    6.8052    1.0000 </r>
       <r>    7.0069    0.9997 </r>
       <r>    7.7950   -0.0516 </r>
       <r>    7.7950   -0.0516 </r>
       <r>   13.6566    0.0000 </r>
       <r>   13.6566    0.0000 </r>
      </set>
      <set comment="kpoint 44">
       <r>   -1.6174    1.0000 </r>
       <r>    1.1489    1.0000 </r>
       <r>    1.1489    1.0000 </r>
       <r>    1.1719    1.0000 </r>
       <r>    1.6007    1.0000 </r>
       <r>    1.6007    1.0000 </r>
       <r>    1.6771    1.0000 </r>
       <r>    3.6374    1.0000 </r>
       <r>    4.1756    1.0000 </r>
       <r>    4.1978    1.0000 </r>
       <r>    5.8091    1.0000 </r>
       <r>    5.8380    1.0000 </r>
       <r>    5.8380    1.0000 </r>
       <r>    5.8488    1.0000 </r>
       <r>    6.0212    1.0000 </r>
       <r>    6.8446    1.0000 </r>
       <r>    6.8878    1.0000 </r>
       <r>    6.8878    1.0000 </r>
       <r>    7.8333   -0.0412 </r>
       <r>    7.8333   -0.0412 </r>
       <r>    7.8471   -0.0350 </r>
       <r>   10.1137    0.0000 </r>
       <r>   10.1137    0.0000 </r>
       <r>   11.4466    0.0000 </r>
      </set>
      <set comment="kpoint 45">
       <r>   -1.3375    1.0000 </r>
       <r>    1.2333    1.0000 </r>
       <r>    1.3179    1.0000 </r>
       <r>    1.3314    1.0000 </r>
       <r>    1.7202    1.0000 </r>
       <r>    1.8038    1.0000 </r>
       <r>    1.8942    1.0000 </r>
       <r>    3.5212    1.0000 </r>
       <r>    4.2756    1.0000 </r>
       <r>    4.2892    1.0000 </r>
       <r>    5.2448    1.0000 </r>
       <r>    5.3754    1.0000 </r>
       <r>    5.3870    1.0000 </r>
       <r>    5.6890    1.0000 </r>
       <r>    6.1253    1.0000 </r>
       <r>    6.6196    1.0000 </r>
       <r>    6.6257    1.0000 </r>
       <r>    6.7092    1.0000 </r>
       <r>    7.7229    0.0092 </r>
       <r>    7.7694   -0.0462 </r>
       <r>    7.7739   -0.0482 </r>
       <r>    9.2926    0.0000 </r>
       <r>   10.7821    0.0000 </r>
       <r>   12.0878    0.0000 </r>
      </set>
      <set comment="kpoint 46">
       <r>   -0.9770    1.0000 </r>
       <r>    1.2987    1.0000 </r>
       <r>    1.5161    1.0000 </r>
       <r>    1.5634    1.0000 </r>
       <r>    1.8738    1.0000 </r>
       <r>    2.0579    1.0000 </r>
       <r>    2.1503    1.0000 </r>
       <r>    3.3525    1.0000 </r>
       <r>    4.3792    1.0000 </r>
       <r>    4.4327    1.0000 </r>
       <r>    4.6654    1.0000 </r>
       <r>    4.8554    1.0000 </r>
       <r>    4.9093    1.0000 </r>
       <r>    5.5596    1.0000 </r>
       <r>    6.2859    1.0000 </r>
       <r>    6.3183    1.0000 </r>
       <r>    6.3705    1.0000 </r>
       <r>    6.4778    1.0000 </r>
       <r>    7.5549    0.7348 </r>
       <r>    7.7027    0.0569 </r>
       <r>    7.7040    0.0534 </r>
       <r>    8.5317    0.0000 </r>
       <r>   11.4346    0.0000 </r>
       <r>   12.7354    0.0000 </r>
      </set>
      <set comment="kpoint 47">
       <r>   -0.5496    1.0000 </r>
       <r>    1.2922    1.0000 </r>
       <r>    1.7624    1.0000 </r>
       <r>    1.8347    1.0000 </r>
       <r>    2.0546    1.0000 </r>
       <r>    2.3379    1.0000 </r>
       <r>    2.4121    1.0000 </r>
       <r>    3.1492    1.0000 </r>
       <r>    4.1312    1.0000 </r>
       <r>    4.3441    1.0000 </r>
       <r>    4.4228    1.0000 </r>
       <r>    4.4912    1.0000 </r>
       <r>    4.6182    1.0000 </r>
       <r>    5.5248    1.0000 </r>
       <r>    5.9937    1.0000 </r>
       <r>    6.0997    1.0000 </r>
       <r>    6.2042    1.0000 </r>
       <r>    6.4803    1.0000 </r>
       <r>    7.2917    1.0077 </r>
       <r>    7.6509    0.2491 </r>
       <r>    7.6516    0.2457 </r>
       <r>    7.9035   -0.0101 </r>
       <r>   12.0271    0.0000 </r>
       <r>   13.2722    0.0000 </r>
      </set>
      <set comment="kpoint 48">
       <r>   -0.0772    1.0000 </r>
       <r>    1.1479    1.0000 </r>
       <r>    2.0427    1.0000 </r>
       <r>    2.1219    1.0000 </r>
       <r>    2.2554    1.0000 </r>
       <r>    2.5937    1.0000 </r>
       <r>    2.6256    1.0000 </r>
       <r>    2.9266    1.0000 </r>
       <r>    3.6819    1.0000 </r>
       <r>    3.8837    1.0000 </r>
       <r>    4.2251    1.0000 </r>
       <r>    4.3555    1.0000 </r>
       <r>    4.8356    1.0000 </r>
       <r>    5.6717    1.0000 </r>
       <r>    5.6725    1.0000 </r>
       <r>    5.8554    1.0000 </r>
       <r>    5.9361    1.0000 </r>
       <r>    6.6988    1.0000 </r>
       <r>    6.8806    1.0000 </r>
       <r>    7.4795    0.9906 </r>
       <r>    7.6179    0.4119 </r>
       <r>    7.6193    0.4047 </r>
       <r>   12.5275    0.0000 </r>
       <r>   13.4208    0.0000 </r>
      </set>
      <set comment="kpoint 49">
       <r>    0.4040    1.0000 </r>
       <r>    0.8369    1.0000 </r>
       <r>    2.3039    1.0000 </r>
       <r>    2.3478    1.0000 </r>
       <r>    2.4712    1.0000 </r>
       <r>    2.6973    1.0000 </r>
       <r>    2.7234    1.0000 </r>
       <r>    2.7259    1.0000 </r>
       <r>    3.4333    1.0000 </r>
       <r>    3.5370    1.0000 </r>
       <r>    4.1536    1.0000 </r>
       <r>    4.2296    1.0000 </r>
       <r>    5.0856    1.0000 </r>
       <r>    5.3660    1.0000 </r>
       <r>    5.7173    1.0000 </r>
       <r>    5.7488    1.0000 </r>
       <r>    5.9864    1.0000 </r>
       <r>    6.4081    1.0000 </r>
       <r>    6.9348    0.9999 </r>
       <r>    7.1876    0.9951 </r>
       <r>    7.6029    0.4907 </r>
       <r>    7.6035    0.4873 </r>
       <r>   12.9234    0.0000 </r>
       <r>   13.2263    0.0000 </r>
      </set>
      <set comment="kpoint 50">
       <r>   -1.0726    1.0000 </r>
       <r>    1.4120    1.0000 </r>
       <r>    1.4120    1.0000 </r>
       <r>    1.4211    1.0000 </r>
       <r>    1.9229    1.0000 </r>
       <r>    1.9229    1.0000 </r>
       <r>    2.1157    1.0000 </r>
       <r>    3.4622    1.0000 </r>
       <r>    4.3229    1.0000 </r>
       <r>    4.3405    1.0000 </r>
       <r>    4.8449    1.0000 </r>
       <r>    4.8449    1.0000 </r>
       <r>    5.0666    1.0000 </r>
       <r>    5.6487    1.0000 </r>
       <r>    6.2142    1.0000 </r>
       <r>    6.3845    1.0000 </r>
       <r>    6.4829    1.0000 </r>
       <r>    6.4829    1.0000 </r>
       <r>    7.6393    0.3038 </r>
       <r>    7.6393    0.3038 </r>
       <r>    7.6677    0.1766 </r>
       <r>    9.9243    0.0000 </r>
       <r>    9.9243    0.0000 </r>
       <r>   12.6520    0.0000 </r>
      </set>
      <set comment="kpoint 51">
       <r>   -0.7319    1.0000 </r>
       <r>    1.4712    1.0000 </r>
       <r>    1.5762    1.0000 </r>
       <r>    1.6385    1.0000 </r>
       <r>    2.0757    1.0000 </r>
       <r>    2.1764    1.0000 </r>
       <r>    2.3611    1.0000 </r>
       <r>    3.3498    1.0000 </r>
       <r>    4.3187    1.0000 </r>
       <r>    4.3552    1.0000 </r>
       <r>    4.4399    1.0000 </r>
       <r>    4.4555    1.0000 </r>
       <r>    4.6822    1.0000 </r>
       <r>    5.5730    1.0000 </r>
       <r>    6.1535    1.0000 </r>
       <r>    6.1933    1.0000 </r>
       <r>    6.3096    1.0000 </r>
       <r>    6.3983    1.0000 </r>
       <r>    7.4508    1.0330 </r>
[...]
       <r>    8.2217    0.0002 </r>
       <r>    8.7615    0.0000 </r>
       <r>    8.7615    0.0000 </r>
       <r>    9.2079    0.0000 </r>
      </set>
      <set comment="kpoint 117">
       <r>    0.4780    1.0000 </r>
       <r>    0.7592    1.0000 </r>
       <r>    0.7592    1.0000 </r>
       <r>    0.7592    1.0000 </r>
       <r>    3.6586    1.0000 </r>
       <r>    3.6586    1.0000 </r>
       <r>    3.6586    1.0000 </r>
       <r>    3.9561    1.0000 </r>
       <r>    3.9561    1.0000 </r>
       <r>    4.1118    1.0000 </r>
       <r>    4.1118    1.0000 </r>
       <r>    4.1118    1.0000 </r>
       <r>    5.7027    1.0000 </r>
       <r>    5.7027    1.0000 </r>
       <r>    5.7027    1.0000 </r>
       <r>    5.9232    1.0000 </r>
       <r>    7.3370    1.0263 </r>
       <r>    7.3370    1.0263 </r>
       <r>    7.6603    0.2072 </r>
       <r>    7.6603    0.2072 </r>
       <r>    7.6603    0.2072 </r>
       <r>    9.1191    0.0000 </r>
       <r>    9.1191    0.0000 </r>
       <r>    9.1191    0.0000 </r>
      </set>
      <set comment="kpoint 118">
       <r>    0.5182    1.0000 </r>
       <r>    0.6124    1.0000 </r>
       <r>    0.7022    1.0000 </r>
       <r>    0.7022    1.0000 </r>
       <r>    3.6984    1.0000 </r>
       <r>    3.6984    1.0000 </r>
       <r>    3.7896    1.0000 </r>
       <r>    3.8907    1.0000 </r>
       <r>    3.9542    1.0000 </r>
       <r>    4.0067    1.0000 </r>
       <r>    4.0452    1.0000 </r>
       <r>    4.0452    1.0000 </r>
       <r>    5.9952    1.0000 </r>
       <r>    5.9952    1.0000 </r>
       <r>    5.9991    1.0000 </r>
       <r>    6.1516    1.0000 </r>
       <r>    7.5260    0.8571 </r>
       <r>    7.6046    0.4817 </r>
       <r>    7.6140    0.4320 </r>
       <r>    7.6140    0.4320 </r>
       <r>    7.6363    0.3185 </r>
       <r>    8.2838    0.0000 </r>
       <r>    9.0811    0.0000 </r>
       <r>    9.0811    0.0000 </r>
      </set>
      <set comment="kpoint 119">
       <r>    0.5211    1.0000 </r>
       <r>    0.5827    1.0000 </r>
       <r>    0.5827    1.0000 </r>
       <r>    0.6127    1.0000 </r>
       <r>    3.7726    1.0000 </r>
       <r>    3.8034    1.0000 </r>
       <r>    3.8034    1.0000 </r>
       <r>    3.8762    1.0000 </r>
       <r>    3.9144    1.0000 </r>
       <r>    3.9525    1.0000 </r>
       <r>    3.9525    1.0000 </r>
       <r>    3.9653    1.0000 </r>
       <r>    6.3357    1.0000 </r>
       <r>    6.3607    1.0000 </r>
       <r>    6.3607    1.0000 </r>
       <r>    6.5051    1.0000 </r>
       <r>    7.4792    0.9911 </r>
       <r>    7.5867    0.5762 </r>
       <r>    7.5867    0.5762 </r>
       <r>    7.5907    0.5552 </r>
       <r>    7.8805   -0.0192 </r>
       <r>    8.4000    0.0000 </r>
       <r>    8.4000    0.0000 </r>
       <r>    8.6903    0.0000 </r>
      </set>
      <set comment="kpoint 120">
       <r>    0.4896    1.0000 </r>
       <r>    0.5203    1.0000 </r>
       <r>    0.5203    1.0000 </r>
       <r>    0.5203    1.0000 </r>
       <r>    3.8414    1.0000 </r>
       <r>    3.8414    1.0000 </r>
       <r>    3.8414    1.0000 </r>
       <r>    3.8766    1.0000 </r>
       <r>    3.8766    1.0000 </r>
       <r>    3.8938    1.0000 </r>
       <r>    3.8938    1.0000 </r>
       <r>    3.8938    1.0000 </r>
       <r>    6.8411    1.0000 </r>
       <r>    6.8411    1.0000 </r>
       <r>    6.8411    1.0000 </r>
       <r>    7.0767    0.9986 </r>
       <r>    7.6048    0.4808 </r>
       <r>    7.6048    0.4808 </r>
       <r>    7.6428    0.2870 </r>
       <r>    7.6428    0.2870 </r>
       <r>    7.6428    0.2870 </r>
       <r>    8.0642    0.0034 </r>
       <r>    8.0642    0.0034 </r>
       <r>    8.0642    0.0034 </r>
      </set>
     </set>
    </set>
   </array>
  </eigenvalues>
  <separator name="orbital magnetization" >
   <v name="MAGDIPOLOUT">      0.00000000      0.00000000      0.00000000</v>
  </separator>
  <dos>
   <i name="efermi">      7.60113114 </i>
   <total>
    <array>
     <dimension dim="1">gridpoints</dimension>
     <dimension dim="2">spin</dimension>
     <field>energy</field>
     <field>total</field>
     <field>integrated</field>
     <set>
      <set comment="spin 1">
       <r>    -4.3098     0.0000     0.0000 </r>
       <r>    -4.2407     0.0000     0.0000 </r>
       <r>    -4.1715     0.0000     0.0000 </r>
       <r>    -4.1024     0.0000     0.0000 </r>
       <r>    -4.0333     0.0000     0.0000 </r>
       <r>    -3.9641     0.0000     0.0000 </r>
       <r>    -3.8950     0.0000     0.0000 </r>
       <r>    -3.8259     0.0000     0.0000 </r>
       <r>    -3.7568     0.0000     0.0000 </r>
       <r>    -3.6876     0.0000     0.0000 </r>
       <r>    -3.6185     0.0000     0.0000 </r>
       <r>    -3.5494     0.0000     0.0000 </r>
       <r>    -3.4802     0.0000     0.0000 </r>
       <r>    -3.4111     0.0000     0.0000 </r>
       <r>    -3.3420     0.0000     0.0000 </r>
       <r>    -3.2728     0.0000     0.0000 </r>
       <r>    -3.2037     0.0000     0.0000 </r>
       <r>    -3.1346     0.0000     0.0000 </r>
       <r>    -3.0655     0.0000     0.0000 </r>
       <r>    -2.9963     0.0000     0.0000 </r>
       <r>    -2.9272     0.0000     0.0000 </r>
       <r>    -2.8581     0.0001     0.0000 </r>
       <r>    -2.7889     0.0002     0.0000 </r>
       <r>    -2.7198     0.0004     0.0000 </r>
       <r>    -2.6507     0.0003     0.0001 </r>
       <r>    -2.5815    -0.0009     0.0000 </r>
       <r>    -2.5124    -0.0031    -0.0002 </r>
       <r>    -2.4433    -0.0030    -0.0004 </r>
       <r>    -2.3742     0.0068     0.0000 </r>
       <r>    -2.3050     0.0313     0.0022 </r>
       <r>    -2.2359     0.0654     0.0067 </r>
       <r>    -2.1668     0.0966     0.0134 </r>
       <r>    -2.0976     0.1210     0.0218 </r>
       <r>    -2.0285     0.1460     0.0319 </r>
       <r>    -1.9594     0.1712     0.0437 </r>
       <r>    -1.8902     0.1821     0.0563 </r>
       <r>    -1.8211     0.1797     0.0687 </r>
       <r>    -1.7520     0.1935     0.0821 </r>
       <r>    -1.6829     0.2355     0.0984 </r>
       <r>    -1.6137     0.2682     0.1169 </r>
       <r>    -1.5446     0.2606     0.1349 </r>
       <r>    -1.4755     0.2422     0.1517 </r>
       <r>    -1.4063     0.2553     0.1693 </r>
       <r>    -1.3372     0.2919     0.1895 </r>
       <r>    -1.2681     0.3232     0.2118 </r>
       <r>    -1.1989     0.3472     0.2358 </r>
       <r>    -1.1298     0.3671     0.2612 </r>
       <r>    -1.0607     0.3640     0.2864 </r>
       <r>    -0.9916     0.3322     0.3093 </r>
       <r>    -0.9224     0.3175     0.3313 </r>
       <r>    -0.8533     0.3711     0.3569 </r>
       <r>    -0.7842     0.4676     0.3893 </r>
       <r>    -0.7150     0.5221     0.4254 </r>
       <r>    -0.6459     0.4940     0.4595 </r>
       <r>    -0.5768     0.4255     0.4889 </r>
       <r>    -0.5076     0.3960     0.5163 </r>
       <r>    -0.4385     0.4572     0.5479 </r>
       <r>    -0.3694     0.5692     0.5873 </r>
       <r>    -0.3003     0.6274     0.6306 </r>
       <r>    -0.2311     0.6019     0.6722 </r>
       <r>    -0.1620     0.5820     0.7125 </r>
       <r>    -0.0929     0.6323     0.7562 </r>
       <r>    -0.0237     0.7004     0.8046 </r>
       <r>     0.0454     0.7159     0.8541 </r>
       <r>     0.1145     0.6977     0.9023 </r>
       <r>     0.1837     0.7255     0.9525 </r>
       <r>     0.2528     0.8504     1.0113 </r>
       <r>     0.3219     1.0275     1.0823 </r>
       <r>     0.3910     1.1679     1.1630 </r>
       <r>     0.4602     1.3108     1.2536 </r>
       <r>     0.5293     1.6031     1.3645 </r>
       <r>     0.5984     2.0196     1.5041 </r>
       <r>     0.6676     2.3251     1.6648 </r>
       <r>     0.7367     2.4173     1.8319 </r>
       <r>     0.8058     2.4763     2.0031 </r>
       <r>     0.8750     2.7140     2.1907 </r>
       <r>     0.9441     3.1444     2.4081 </r>
       <r>     1.0132     3.5922     2.6564 </r>
       <r>     1.0823     3.8873     2.9252 </r>
       <r>     1.1515     4.1079     3.2091 </r>
       <r>     1.2206     4.4554     3.5171 </r>
       <r>     1.2897     4.8924     3.8553 </r>
       <r>     1.3589     5.2782     4.2202 </r>
       <r>     1.4280     5.6566     4.6113 </r>
       <r>     1.4971     5.9807     5.0247 </r>
       <r>     1.5663     6.0092     5.4401 </r>
       <r>     1.6354     5.7977     5.8409 </r>
       <r>     1.7045     5.6881     6.2341 </r>
       <r>     1.7736     5.6850     6.6271 </r>
       <r>     1.8428     5.4963     7.0071 </r>
       <r>     1.9119     5.1821     7.3653 </r>
       <r>     1.9810     5.1033     7.7181 </r>
       <r>     2.0502     5.2551     8.0814 </r>
       <r>     2.1193     5.2687     8.4456 </r>
       <r>     2.1884     5.0307     8.7934 </r>
       <r>     2.2576     4.7334     9.1206 </r>
       <r>     2.3267     4.3926     9.4243 </r>
       <r>     2.3958     3.8989     9.6938 </r>
       <r>     2.4649     3.4893     9.9350 </r>
       <r>     2.5341     3.5821    10.1827 </r>
       <r>     2.6032     4.1413    10.4690 </r>
       <r>     2.6723     4.7094    10.7945 </r>
       <r>     2.7415     5.0259    11.1420 </r>
       <r>     2.8106     5.1933    11.5010 </r>
       <r>     2.8797     5.3521    11.8710 </r>
       <r>     2.9489     5.5211    12.2526 </r>
       <r>     3.0180     5.6482    12.6431 </r>
       <r>     3.0871     5.6740    13.0353 </r>
       <r>     3.1562     5.6009    13.4225 </r>
       <r>     3.2254     5.5203    13.8041 </r>
       <r>     3.2945     5.5771    14.1897 </r>
       <r>     3.3636     5.8608    14.5948 </r>
       <r>     3.4328     6.2360    15.0259 </r>
       <r>     3.5019     6.3886    15.4676 </r>
       <r>     3.5710     6.2297    15.8982 </r>
       <r>     3.6402     6.0497    16.3164 </r>
       <r>     3.7093     6.0993    16.7381 </r>
       <r>     3.7784     6.3880    17.1797 </r>
       <r>     3.8475     6.9082    17.6573 </r>
       <r>     3.9167     7.5375    18.1783 </r>
       <r>     3.9858     7.9070    18.7249 </r>
       <r>     4.0549     7.9122    19.2719 </r>
       <r>     4.1241     8.0360    19.8274 </r>
       <r>     4.1932     8.6974    20.4287 </r>
       <r>     4.2623     9.5762    21.0907 </r>
       <r>     4.3315     9.9288    21.7771 </r>
       <r>     4.4006     9.3808    22.4256 </r>
       <r>     4.4697     8.1784    22.9909 </r>
       <r>     4.5388     6.8383    23.4637 </r>
       <r>     4.6080     5.7976    23.8645 </r>
       <r>     4.6771     5.2308    24.2261 </r>
       <r>     4.7462     4.9910    24.5711 </r>
       <r>     4.8154     4.8452    24.9060 </r>
       <r>     4.8845     4.7638    25.2354 </r>
       <r>     4.9536     4.8164    25.5683 </r>
       <r>     5.0228     4.8762    25.9054 </r>
       <r>     5.0919     4.7198    26.2317 </r>
       <r>     5.1610     4.4444    26.5389 </r>
       <r>     5.2301     4.4256    26.8449 </r>
       <r>     5.2993     4.7451    27.1729 </r>
       <r>     5.3684     5.0821    27.5242 </r>
       <r>     5.4375     5.2912    27.8900 </r>
       <r>     5.5067     5.5907    28.2765 </r>
       <r>     5.5758     6.0695    28.6961 </r>
       <r>     5.6449     6.4805    29.1441 </r>
       <r>     5.7141     6.5710    29.5983 </r>
       <r>     5.7832     6.3458    30.0370 </r>
       <r>     5.8523     6.0469    30.4550 </r>
       <r>     5.9214     5.8674    30.8606 </r>
       <r>     5.9906     5.6552    31.2516 </r>
       <r>     6.0597     5.1782    31.6095 </r>
       <r>     6.1288     4.6463    31.9307 </r>
       <r>     6.1980     4.5416    32.2447 </r>
       <r>     6.2671     4.9260    32.5852 </r>
       <r>     6.3362     5.2712    32.9496 </r>
       <r>     6.4054     5.0634    33.2997 </r>
       <r>     6.4745     4.4560    33.6077 </r>
       <r>     6.5436     4.1143    33.8921 </r>
       <r>     6.6127     4.3289    34.1914 </r>
       <r>     6.6819     4.6734    34.5145 </r>
       <r>     6.7510     4.7335    34.8417 </r>
       <r>     6.8201     4.6420    35.1626 </r>
       <r>     6.8893     4.6590    35.4847 </r>
       <r>     6.9584     4.7348    35.8120 </r>
       <r>     7.0275     4.7406    36.1397 </r>
       <r>     7.0967     4.7871    36.4706 </r>
       <r>     7.1658     5.0683    36.8210 </r>
       <r>     7.2349     5.5975    37.2080 </r>
       <r>     7.3040     6.2809    37.6422 </r>
       <r>     7.3732     7.0361    38.1286 </r>
       <r>     7.4423     7.7422    38.6638 </r>
       <r>     7.5114     8.2808    39.2362 </r>
       <r>     7.5806     8.5350    39.8263 </r>
       <r>     7.6497     8.2175    40.3943 </r>
       <r>     7.7188     7.1212    40.8866 </r>
       <r>     7.7880     5.6767    41.2790 </r>
       <r>     7.8571     4.6675    41.6017 </r>
       <r>     7.9262     4.2646    41.8965 </r>
       <r>     7.9953     3.8806    42.1648 </r>
       <r>     8.0645     3.0035    42.3724 </r>
       <r>     8.1336     1.7663    42.4945 </r>
       <r>     8.2027     0.7350    42.5453 </r>
       <r>     8.2719     0.3914    42.5724 </r>
       <r>     8.3410     0.7965    42.6275 </r>
       <r>     8.4101     1.5451    42.7343 </r>
       <r>     8.4793     1.9984    42.8724 </r>
       <r>     8.5484     1.7737    42.9950 </r>
       <r>     8.6175     1.0963    43.0708 </r>
       <r>     8.6866     0.5252    43.1071 </r>
       <r>     8.7558     0.3761    43.1331 </r>
       <r>     8.8249     0.5880    43.1738 </r>
       <r>     8.8940     0.9938    43.2425 </r>
       <r>     8.9632     1.4331    43.3415 </r>
       <r>     9.0323     1.6876    43.4582 </r>
       <r>     9.1014     1.5924    43.5683 </r>
       <r>     9.1706     1.2395    43.6540 </r>
       <r>     9.2397     0.9214    43.7177 </r>
       <r>     9.3088     0.8486    43.7763 </r>
       <r>     9.3779     0.9823    43.8443 </r>
       <r>     9.4471     1.1109    43.9210 </r>
       <r>     9.5162     1.0799    43.9957 </r>
       <r>     9.5853     0.9690    44.0627 </r>
       <r>     9.6545     0.9750    44.1301 </r>
       <r>     9.7236     1.1365    44.2087 </r>
       <r>     9.7927     1.3028    44.2987 </r>
       <r>     9.8619     1.3284    44.3905 </r>
       <r>     9.9310     1.1877    44.4727 </r>
       <r>    10.0001     0.9988    44.5417 </r>
       <r>    10.0692     0.9619    44.6082 </r>
       <r>    10.1384     1.1135    44.6852 </r>
       <r>    10.2075     1.2311    44.7703 </r>
       <r>    10.2766     1.1504    44.8498 </r>
       <r>    10.3458     0.9989    44.9189 </r>
       <r>    10.4149     0.9821    44.9868 </r>
       <r>    10.4840     1.1122    45.0636 </r>
       <r>    10.5532     1.2160    45.1477 </r>
       <r>    10.6223     1.1367    45.2263 </r>
       <r>    10.6914     0.9342    45.2909 </r>
       <r>    10.7605     0.8339    45.3485 </r>
       <r>    10.8297     0.9313    45.4129 </r>
       <r>    10.8988     1.0898    45.4882 </r>
       <r>    10.9679     1.1737    45.5694 </r>
       <r>    11.0371     1.1944    45.6519 </r>
       <r>    11.1062     1.1769    45.7333 </r>
       <r>    11.1753     1.0725    45.8074 </r>
       <r>    11.2445     0.9025    45.8698 </r>
       <r>    11.3136     0.8259    45.9269 </r>
       <r>    11.3827     0.9327    45.9914 </r>
       <r>    11.4518     1.1053    46.0678 </r>
       <r>    11.5210     1.1789    46.1493 </r>
       <r>    11.5901     1.0911    46.2247 </r>
       <r>    11.6592     0.8702    46.2849 </r>
       <r>    11.7284     0.6498    46.3298 </r>
       <r>    11.7975     0.6249    46.3730 </r>
       <r>    11.8666     0.8317    46.4305 </r>
       <r>    11.9358     1.0746    46.5048 </r>
       <r>    12.0049     1.1610    46.5851 </r>
       <r>    12.0740     1.0831    46.6599 </r>
       <r>    12.1431     0.9556    46.7260 </r>
       <r>    12.2123     0.9025    46.7884 </r>
       <r>    12.2814     0.9503    46.8541 </r>
       <r>    12.3505     0.9675    46.9210 </r>
       <r>    12.4197     0.8249    46.9780 </r>
       <r>    12.4888     0.5883    47.0186 </r>
       <r>    12.5579     0.4395    47.0490 </r>
       <r>    12.6271     0.5160    47.0847 </r>
       <r>    12.6962     0.8291    47.1420 </r>
       <r>    12.7653     1.1686    47.2228 </r>
       <r>    12.8344     1.2158    47.3069 </r>
       <r>    12.9036     0.9328    47.3713 </r>
       <r>    12.9727     0.6331    47.4151 </r>
       <r>    13.0418     0.5713    47.4546 </r>
       <r>    13.1110     0.6845    47.5019 </r>
       <r>    13.1801     0.7698    47.5551 </r>
       <r>    13.2492     0.7423    47.6064 </r>
       <r>    13.3184     0.6774    47.6533 </r>
       <r>    13.3875     0.6504    47.6982 </r>
       <r>    13.4566     0.6196    47.7411 </r>
       <r>    13.5257     0.5432    47.7786 </r>
       <r>    13.5949     0.4828    47.8120 </r>
       <r>    13.6640     0.4693    47.8444 </r>
       <r>    13.7331     0.4284    47.8741 </r>
       <r>    13.8023     0.3277    47.8967 </r>
       <r>    13.8714     0.2296    47.9126 </r>
       <r>    13.9405     0.1762    47.9248 </r>
       <r>    14.0097     0.1519    47.9353 </r>
       <r>    14.0788     0.1368    47.9447 </r>
       <r>    14.1479     0.1277    47.9536 </r>
       <r>    14.2170     0.1249    47.9622 </r>
       <r>    14.2862     0.1255    47.9709 </r>
       <r>    14.3553     0.1291    47.9798 </r>
       <r>    14.4244     0.1300    47.9888 </r>
       <r>    14.4936     0.1081    47.9962 </r>
       <r>    14.5627     0.0587    48.0003 </r>
       <r>    14.6318     0.0110    48.0011 </r>
       <r>    14.7009    -0.0088    48.0005 </r>
       <r>    14.7701    -0.0070    48.0000 </r>
       <r>    14.8392    -0.0013    47.9999 </r>
       <r>    14.9083     0.0008    47.9999 </r>
       <r>    14.9775     0.0007    48.0000 </r>
       <r>    15.0466     0.0002    48.0000 </r>
       <r>    15.1157     0.0001    48.0000 </r>
       <r>    15.1849     0.0000    48.0000 </r>
       <r>    15.2540     0.0000    48.0000 </r>
       <r>    15.3231     0.0000    48.0000 </r>
       <r>    15.3922     0.0000    48.0000 </r>
       <r>    15.4614     0.0000    48.0000 </r>
       <r>    15.5305     0.0000    48.0000 </r>
       <r>    15.5996     0.0000    48.0000 </r>
       <r>    15.6688     0.0000    48.0000 </r>
       <r>    15.7379     0.0000    48.0000 </r>
       <r>    15.8070     0.0000    48.0000 </r>
       <r>    15.8762     0.0000    48.0000 </r>
       <r>    15.9453     0.0000    48.0000 </r>
       <r>    16.0144     0.0000    48.0000 </r>
       <r>    16.0835     0.0000    48.0000 </r>
       <r>    16.1527     0.0000    48.0000 </r>
       <r>    16.2218     0.0000    48.0000 </r>
       <r>    16.2909     0.0000    48.0000 </r>
       <r>    16.3601     0.0000    48.0000 </r>
       <r>    16.4292     0.0000    48.0000 </r>
      </set>
     </set>
    </array>
   </total>
  </dos>
 </calculation>
 <structure name="finalpos" >
  <crystal>
   <varray name="basis" >
    <v>       3.95000000       0.00000000       0.00000000 </v>
    <v>       0.00000000       3.95000000       0.00000000 </v>
    <v>       0.00000000       0.00000000       3.95000000 </v>
   </varray>
   <i name="volume">     61.62987500 </i>
   <varray name="rec_basis" >
    <v>       0.25316456       0.00000000       0.00000000 </v>
    <v>       0.00000000       0.25316456       0.00000000 </v>
    <v>       0.00000000       0.00000000       0.25316456 </v>
   </varray>
  </crystal>
  <varray name="positions" >
   <v>       0.00000000       0.00000000       0.00000000 </v>
   <v>       0.00000000       0.50000000       0.50000000 </v>
   <v>       0.50000000       0.00000000       0.50000000 </v>
   <v>       0.50000000       0.50000000       0.00000000 </v>
  </varray>
 </structure>
</modeling>
