This job started on
Tue Jan 22 15:10:22 CET 2019
 running on   16 total cores
 distrk:  each k-point on   16 cores,    1 groups
 distr:  one band on    8 cores,    2 groups
 using from now: INCAR     
 vasp.5.4.4.18Apr17-6-g9f103f2a35 (build Apr 17 2018 18:25:23) complex          
  
 POSCAR found :  1 types and       4 ions

 ----------------------------------------------------------------------------- 
|                                                                             |
|  ADVICE TO THIS USER RUNNING 'VASP/VAMP'   (HEAR YOUR MASTER'S VOICE ...):  |
|                                                                             |
|      You enforced a specific xc-type in the INCAR file,                     |
|      a different type was found on the POTCAR file                          |
|          I HOPE YOU KNOW, WHAT YOU ARE  DOING                               |
|                                                                             |
 ----------------------------------------------------------------------------- 

 LDA part: xc-table for Ceperly-Alder, standard interpolation
 POSCAR found :  1 types and       4 ions
 POSCAR, INCAR and KPOINTS ok, starting setup
 FFT: planning ...
 WAVECAR not read
 entering main loop
       N       E                     dE             d eps       ncg     rms          rms(c)
DAV:   1     0.405144641585E+03    0.40514E+03   -0.16818E+04 10560   0.145E+03
DAV:   2     0.720287231163E+01   -0.39794E+03   -0.38465E+03 10632   0.493E+02
DAV:   3    -0.235260059411E+02   -0.30729E+02   -0.29604E+02 14832   0.113E+02
DAV:   4    -0.245950972619E+02   -0.10691E+01   -0.10598E+01 11288   0.312E+01
DAV:   5    -0.246339570242E+02   -0.38860E-01   -0.38832E-01 13888   0.356E+00    0.751E+00
DAV:   6    -0.229797385654E+02    0.16542E+01   -0.54949E+00 13944   0.244E+01    0.150E+00
DAV:   7    -0.229348714841E+02    0.44867E-01   -0.20850E-01 15888   0.384E+00    0.666E-01
DAV:   8    -0.229286597196E+02    0.62118E-02   -0.11304E-02 11016   0.130E+00    0.823E-02
DAV:   9    -0.229284880338E+02    0.17169E-03   -0.12865E-03 15712   0.357E-01    0.265E-02
DAV:  10    -0.229284964780E+02   -0.84441E-05   -0.45245E-05 12896   0.477E-02    0.302E-03
DAV:  11    -0.229284976857E+02   -0.12077E-05   -0.11269E-06  7784   0.978E-03    0.637E-04
DAV:  12    -0.229284973540E+02    0.33164E-06   -0.27847E-07  5624   0.666E-03
   1 F= -.22928497E+02 E0= -.22926102E+02  d E =-.229285E+02
 curvature:   0.00 expect dE= 0.000E+00 dE for cont linesearch  0.000E+00
 trial: gam= 0.00000 g(F)=  0.130E-59 g(S)=  0.000E+00 ort = 0.000E+00 (trialstep = 0.100E+01)
 search vector abs. value=  0.100E-09
 reached required accuracy - stopping structural energy minimisation
 writing wavefunctions
This job finished on
Tue Jan 22 15:11:00 CET 2019
