<?xml version="1.0" encoding="ISO-8859-1"?>
<modeling>
 <generator>
  <i name="program" type="string">vasp </i>
  <i name="version" type="string">5.4.4.18Apr17-6-g9f103f2a35  </i>
  <i name="subversion" type="string">(build Apr 17 2018 18:25:23) complex            parallel </i>
  <i name="platform" type="string">LinuxIFC </i>
  <i name="date" type="string">2019 01 22 </i>
  <i name="time" type="string">15:10:23 </i>
 </generator>
 <incar>
  <i type="string" name="SYSTEM"> Pt bulk calculation</i>
  <i type="int" name="ISTART">     0</i>
  <i type="string" name="PREC">normal</i>
  <i type="string" name="ALGO"> NORMAL</i>
  <i type="int" name="ICHARG">     2</i>
  <i type="int" name="INIWAV">     1</i>
  <i type="int" name="NELMIN">    10</i>
  <i type="int" name="IBRION">     2</i>
  <i name="EDIFF">      0.00000100</i>
  <i name="EDIFFG">     -0.02000000</i>
  <i type="int" name="NSW">    10</i>
  <i name="ENCUT">    450.00000000</i>
  <i name="POTIM">      0.20000000</i>
  <i type="int" name="ISMEAR">     2</i>
  <i name="SIGMA">      0.20000000</i>
  <v type="int" name="KPOINT_BSE">    -1     0     0     0</v>
  <i type="string" name="GGA"> 91</i>
 </incar>
 <structure name="primitive_cell" >
  <crystal>
   <varray name="basis" >
    <v>       2.13000000       2.13000000       0.00000000 </v>
    <v>       2.13000000       0.00000000      -2.13000000 </v>
    <v>       0.00000000       2.13000000      -2.13000000 </v>
   </varray>
   <i name="volume">     19.32719400 </i>
   <varray name="rec_basis" >
    <v>       0.23474178       0.23474178       0.23474178 </v>
    <v>       0.23474178      -0.23474178      -0.23474178 </v>
    <v>      -0.23474178       0.23474178      -0.23474178 </v>
   </varray>
  </crystal>
  <varray name="positions" >
   <v>       0.00000000       0.00000000       0.00000000 </v>
  </varray>
 </structure>
 <varray name="primitive_index" >
  <v type="int" >        1 </v>
 </varray>
 <kpoints>
  <generation param="Monkhorst-Pack">
   <v type="int" name="divisions">      20       20       20 </v>
   <v name="usershift">      0.00000000       0.00000000       0.00000000 </v>
   <v name="genvec1">      0.05000000       0.00000000       0.00000000 </v>
   <v name="genvec2">      0.00000000       0.05000000       0.00000000 </v>
   <v name="genvec3">      0.00000000       0.00000000       0.05000000 </v>
   <v name="shift">      0.50000000       0.50000000       0.50000000 </v>
  </generation>
  <varray name="kpointlist" >
   <v>       0.02500000       0.02500000       0.02500000 </v>
   <v>       0.07500000       0.02500000       0.02500000 </v>
   <v>       0.12500000       0.02500000       0.02500000 </v>
   <v>       0.17500000       0.02500000       0.02500000 </v>
   <v>       0.22500000       0.02500000       0.02500000 </v>
   <v>       0.27500000       0.02500000       0.02500000 </v>
   <v>       0.32500000       0.02500000       0.02500000 </v>
   <v>       0.37500000       0.02500000       0.02500000 </v>
   <v>       0.42500000       0.02500000       0.02500000 </v>
   <v>       0.47500000       0.02500000       0.02500000 </v>
   <v>       0.07500000       0.07500000       0.02500000 </v>
   <v>       0.12500000       0.07500000       0.02500000 </v>
   <v>       0.17500000       0.07500000       0.02500000 </v>
   <v>       0.22500000       0.07500000       0.02500000 </v>
   <v>       0.27500000       0.07500000       0.02500000 </v>
   <v>       0.32500000       0.07500000       0.02500000 </v>
   <v>       0.37500000       0.07500000       0.02500000 </v>
   <v>       0.42500000       0.07500000       0.02500000 </v>
   <v>       0.47500000       0.07500000       0.02500000 </v>
   <v>       0.12500000       0.12500000       0.02500000 </v>
   <v>       0.17500000       0.12500000       0.02500000 </v>
   <v>       0.22500000       0.12500000       0.02500000 </v>
   <v>       0.27500000       0.12500000       0.02500000 </v>
   <v>       0.32500000       0.12500000       0.02500000 </v>
   <v>       0.37500000       0.12500000       0.02500000 </v>
   <v>       0.42500000       0.12500000       0.02500000 </v>
   <v>       0.47500000       0.12500000       0.02500000 </v>
   <v>       0.17500000       0.17500000       0.02500000 </v>
   <v>       0.22500000       0.17500000       0.02500000 </v>
   <v>       0.27500000       0.17500000       0.02500000 </v>
   <v>       0.32500000       0.17500000       0.02500000 </v>
   <v>       0.37500000       0.17500000       0.02500000 </v>
   <v>       0.42500000       0.17500000       0.02500000 </v>
   <v>       0.47500000       0.17500000       0.02500000 </v>
   <v>       0.22500000       0.22500000       0.02500000 </v>
   <v>       0.27500000       0.22500000       0.02500000 </v>
   <v>       0.32500000       0.22500000       0.02500000 </v>
   <v>       0.37500000       0.22500000       0.02500000 </v>
   <v>       0.42500000       0.22500000       0.02500000 </v>
   <v>       0.47500000       0.22500000       0.02500000 </v>
   <v>       0.27500000       0.27500000       0.02500000 </v>
   <v>       0.32500000       0.27500000       0.02500000 </v>
   <v>       0.37500000       0.27500000       0.02500000 </v>
   <v>       0.42500000       0.27500000       0.02500000 </v>
   <v>       0.47500000       0.27500000       0.02500000 </v>
   <v>       0.32500000       0.32500000       0.02500000 </v>
   <v>       0.37500000       0.32500000       0.02500000 </v>
   <v>       0.42500000       0.32500000       0.02500000 </v>
   <v>       0.47500000       0.32500000       0.02500000 </v>
   <v>       0.37500000       0.37500000       0.02500000 </v>
   <v>       0.42500000       0.37500000       0.02500000 </v>
   <v>       0.47500000       0.37500000       0.02500000 </v>
   <v>       0.42500000       0.42500000       0.02500000 </v>
   <v>       0.47500000       0.42500000       0.02500000 </v>
   <v>       0.47500000       0.47500000       0.02500000 </v>
   <v>       0.07500000       0.07500000       0.07500000 </v>
   <v>       0.12500000       0.07500000       0.07500000 </v>
   <v>       0.17500000       0.07500000       0.07500000 </v>
   <v>       0.22500000       0.07500000       0.07500000 </v>
   <v>       0.27500000       0.07500000       0.07500000 </v>
   <v>       0.32500000       0.07500000       0.07500000 </v>
   <v>       0.37500000       0.07500000       0.07500000 </v>
   <v>       0.42500000       0.07500000       0.07500000 </v>
   <v>       0.47500000       0.07500000       0.07500000 </v>
   <v>       0.12500000       0.12500000       0.07500000 </v>
   <v>       0.17500000       0.12500000       0.07500000 </v>
   <v>       0.22500000       0.12500000       0.07500000 </v>
   <v>       0.27500000       0.12500000       0.07500000 </v>
   <v>       0.32500000       0.12500000       0.07500000 </v>
   <v>       0.37500000       0.12500000       0.07500000 </v>
   <v>       0.42500000       0.12500000       0.07500000 </v>
   <v>       0.47500000       0.12500000       0.07500000 </v>
   <v>       0.17500000       0.17500000       0.07500000 </v>
   <v>       0.22500000       0.17500000       0.07500000 </v>
   <v>       0.27500000       0.17500000       0.07500000 </v>
   <v>       0.32500000       0.17500000       0.07500000 </v>
   <v>       0.37500000       0.17500000       0.07500000 </v>
   <v>       0.42500000       0.17500000       0.07500000 </v>
   <v>       0.47500000       0.17500000       0.07500000 </v>
   <v>       0.22500000       0.22500000       0.07500000 </v>
   <v>       0.27500000       0.22500000       0.07500000 </v>
   <v>       0.32500000       0.22500000       0.07500000 </v>
   <v>       0.37500000       0.22500000       0.07500000 </v>
   <v>       0.42500000       0.22500000       0.07500000 </v>
   <v>       0.47500000       0.22500000       0.07500000 </v>
   <v>       0.27500000       0.27500000       0.07500000 </v>
   <v>       0.32500000       0.27500000       0.07500000 </v>
   <v>       0.37500000       0.27500000       0.07500000 </v>
   <v>       0.42500000       0.27500000       0.07500000 </v>
   <v>       0.47500000       0.27500000       0.07500000 </v>
   <v>       0.32500000       0.32500000       0.07500000 </v>
   <v>       0.37500000       0.32500000       0.07500000 </v>
   <v>       0.42500000       0.32500000       0.07500000 </v>
   <v>       0.47500000       0.32500000       0.07500000 </v>
   <v>       0.37500000       0.37500000       0.07500000 </v>
   <v>       0.42500000       0.37500000       0.07500000 </v>
   <v>       0.47500000       0.37500000       0.07500000 </v>
   <v>       0.42500000       0.42500000       0.07500000 </v>
   <v>       0.47500000       0.42500000       0.07500000 </v>
   <v>       0.47500000       0.47500000       0.07500000 </v>
   <v>       0.12500000       0.12500000       0.12500000 </v>
   <v>       0.17500000       0.12500000       0.12500000 </v>
   <v>       0.22500000       0.12500000       0.12500000 </v>
   <v>       0.27500000       0.12500000       0.12500000 </v>
   <v>       0.32500000       0.12500000       0.12500000 </v>
   <v>       0.37500000       0.12500000       0.12500000 </v>
   <v>       0.42500000       0.12500000       0.12500000 </v>
   <v>       0.47500000       0.12500000       0.12500000 </v>
   <v>       0.17500000       0.17500000       0.12500000 </v>
   <v>       0.22500000       0.17500000       0.12500000 </v>
   <v>       0.27500000       0.17500000       0.12500000 </v>
   <v>       0.32500000       0.17500000       0.12500000 </v>
   <v>       0.37500000       0.17500000       0.12500000 </v>
   <v>       0.42500000       0.17500000       0.12500000 </v>
   <v>       0.47500000       0.17500000       0.12500000 </v>
   <v>       0.22500000       0.22500000       0.12500000 </v>
   <v>       0.27500000       0.22500000       0.12500000 </v>
   <v>       0.32500000       0.22500000       0.12500000 </v>
   <v>       0.37500000       0.22500000       0.12500000 </v>
   <v>       0.42500000       0.22500000       0.12500000 </v>
   <v>       0.47500000       0.22500000       0.12500000 </v>
   <v>       0.27500000       0.27500000       0.12500000 </v>
   <v>       0.32500000       0.27500000       0.12500000 </v>
   <v>       0.37500000       0.27500000       0.12500000 </v>
   <v>       0.42500000       0.27500000       0.12500000 </v>
   <v>       0.47500000       0.27500000       0.12500000 </v>
   <v>       0.32500000       0.32500000       0.12500000 </v>
   <v>       0.37500000       0.32500000       0.12500000 </v>
   <v>       0.42500000       0.32500000       0.12500000 </v>
   <v>       0.47500000       0.32500000       0.12500000 </v>
   <v>       0.37500000       0.37500000       0.12500000 </v>
   <v>       0.42500000       0.37500000       0.12500000 </v>
   <v>       0.47500000       0.37500000       0.12500000 </v>
   <v>       0.42500000       0.42500000       0.12500000 </v>
   <v>       0.47500000       0.42500000       0.12500000 </v>
   <v>       0.47500000       0.47500000       0.12500000 </v>
   <v>       0.17500000       0.17500000       0.17500000 </v>
   <v>       0.22500000       0.17500000       0.17500000 </v>
   <v>       0.27500000       0.17500000       0.17500000 </v>
   <v>       0.32500000       0.17500000       0.17500000 </v>
   <v>       0.37500000       0.17500000       0.17500000 </v>
   <v>       0.42500000       0.17500000       0.17500000 </v>
   <v>       0.47500000       0.17500000       0.17500000 </v>
   <v>       0.22500000       0.22500000       0.17500000 </v>
   <v>       0.27500000       0.22500000       0.17500000 </v>
   <v>       0.32500000       0.22500000       0.17500000 </v>
   <v>       0.37500000       0.22500000       0.17500000 </v>
   <v>       0.42500000       0.22500000       0.17500000 </v>
   <v>       0.47500000       0.22500000       0.17500000 </v>
   <v>       0.27500000       0.27500000       0.17500000 </v>
   <v>       0.32500000       0.27500000       0.17500000 </v>
   <v>       0.37500000       0.27500000       0.17500000 </v>
   <v>       0.42500000       0.27500000       0.17500000 </v>
   <v>       0.47500000       0.27500000       0.17500000 </v>
   <v>       0.32500000       0.32500000       0.17500000 </v>
   <v>       0.37500000       0.32500000       0.17500000 </v>
   <v>       0.42500000       0.32500000       0.17500000 </v>
   <v>       0.47500000       0.32500000       0.17500000 </v>
   <v>       0.37500000       0.37500000       0.17500000 </v>
   <v>       0.42500000       0.37500000       0.17500000 </v>
   <v>       0.47500000       0.37500000       0.17500000 </v>
   <v>       0.42500000       0.42500000       0.17500000 </v>
   <v>       0.47500000       0.42500000       0.17500000 </v>
   <v>       0.47500000       0.47500000       0.17500000 </v>
   <v>       0.22500000       0.22500000       0.22500000 </v>
   <v>       0.27500000       0.22500000       0.22500000 </v>
   <v>       0.32500000       0.22500000       0.22500000 </v>
   <v>       0.37500000       0.22500000       0.22500000 </v>
   <v>       0.42500000       0.22500000       0.22500000 </v>
   <v>       0.47500000       0.22500000       0.22500000 </v>
   <v>       0.27500000       0.27500000       0.22500000 </v>
   <v>       0.32500000       0.27500000       0.22500000 </v>
   <v>       0.37500000       0.27500000       0.22500000 </v>
   <v>       0.42500000       0.27500000       0.22500000 </v>
   <v>       0.47500000       0.27500000       0.22500000 </v>
   <v>       0.32500000       0.32500000       0.22500000 </v>
   <v>       0.37500000       0.32500000       0.22500000 </v>
   <v>       0.42500000       0.32500000       0.22500000 </v>
   <v>       0.47500000       0.32500000       0.22500000 </v>
   <v>       0.37500000       0.37500000       0.22500000 </v>
   <v>       0.42500000       0.37500000       0.22500000 </v>
   <v>       0.47500000       0.37500000       0.22500000 </v>
   <v>       0.42500000       0.42500000       0.22500000 </v>
   <v>       0.47500000       0.42500000       0.22500000 </v>
   <v>       0.47500000       0.47500000       0.22500000 </v>
   <v>       0.27500000       0.27500000       0.27500000 </v>
   <v>       0.32500000       0.27500000       0.27500000 </v>
   <v>       0.37500000       0.27500000       0.27500000 </v>
   <v>       0.42500000       0.27500000       0.27500000 </v>
   <v>       0.47500000       0.27500000       0.27500000 </v>
   <v>       0.32500000       0.32500000       0.27500000 </v>
   <v>       0.37500000       0.32500000       0.27500000 </v>
   <v>       0.42500000       0.32500000       0.27500000 </v>
   <v>       0.47500000       0.32500000       0.27500000 </v>
   <v>       0.37500000       0.37500000       0.27500000 </v>
   <v>       0.42500000       0.37500000       0.27500000 </v>
   <v>       0.47500000       0.37500000       0.27500000 </v>
   <v>       0.42500000       0.42500000       0.27500000 </v>
   <v>       0.47500000       0.42500000       0.27500000 </v>
   <v>       0.47500000       0.47500000       0.27500000 </v>
   <v>       0.32500000       0.32500000       0.32500000 </v>
   <v>       0.37500000       0.32500000       0.32500000 </v>
   <v>       0.42500000       0.32500000       0.32500000 </v>
   <v>       0.47500000       0.32500000       0.32500000 </v>
   <v>       0.37500000       0.37500000       0.32500000 </v>
   <v>       0.42500000       0.37500000       0.32500000 </v>
   <v>       0.47500000       0.37500000       0.32500000 </v>
   <v>       0.42500000       0.42500000       0.32500000 </v>
   <v>       0.47500000       0.42500000       0.32500000 </v>
   <v>       0.47500000       0.47500000       0.32500000 </v>
   <v>       0.37500000       0.37500000       0.37500000 </v>
   <v>       0.42500000       0.37500000       0.37500000 </v>
   <v>       0.47500000       0.37500000       0.37500000 </v>
   <v>       0.42500000       0.42500000       0.37500000 </v>
   <v>       0.47500000       0.42500000       0.37500000 </v>
   <v>       0.47500000       0.47500000       0.37500000 </v>
   <v>       0.42500000       0.42500000       0.42500000 </v>
   <v>       0.47500000       0.42500000       0.42500000 </v>
   <v>       0.47500000       0.47500000       0.42500000 </v>
   <v>       0.47500000       0.47500000       0.47500000 </v>
  </varray>
  <varray name="weights" >
   <v>       0.00100000 </v>
   <v>       0.00300000 </v>
   <v>       0.00300000 </v>
   <v>       0.00300000 </v>
   <v>       0.00300000 </v>
   <v>       0.00300000 </v>
   <v>       0.00300000 </v>
   <v>       0.00300000 </v>
   <v>       0.00300000 </v>
   <v>       0.00300000 </v>
   <v>       0.00300000 </v>
   <v>       0.00600000 </v>
   <v>       0.00600000 </v>
   <v>       0.00600000 </v>
   <v>       0.00600000 </v>
   <v>       0.00600000 </v>
   <v>       0.00600000 </v>
   <v>       0.00600000 </v>
   <v>       0.00600000 </v>
   <v>       0.00300000 </v>
   <v>       0.00600000 </v>
   <v>       0.00600000 </v>
   <v>       0.00600000 </v>
   <v>       0.00600000 </v>
   <v>       0.00600000 </v>
   <v>       0.00600000 </v>
   <v>       0.00600000 </v>
   <v>       0.00300000 </v>
   <v>       0.00600000 </v>
   <v>       0.00600000 </v>
   <v>       0.00600000 </v>
   <v>       0.00600000 </v>
   <v>       0.00600000 </v>
   <v>       0.00600000 </v>
   <v>       0.00300000 </v>
   <v>       0.00600000 </v>
   <v>       0.00600000 </v>
   <v>       0.00600000 </v>
   <v>       0.00600000 </v>
   <v>       0.00600000 </v>
   <v>       0.00300000 </v>
   <v>       0.00600000 </v>
   <v>       0.00600000 </v>
   <v>       0.00600000 </v>
   <v>       0.00600000 </v>
   <v>       0.00300000 </v>
   <v>       0.00600000 </v>
   <v>       0.00600000 </v>
   <v>       0.00600000 </v>
   <v>       0.00300000 </v>
   <v>       0.00600000 </v>
   <v>       0.00600000 </v>
   <v>       0.00300000 </v>
   <v>       0.00600000 </v>
   <v>       0.00300000 </v>
   <v>       0.00100000 </v>
   <v>       0.00300000 </v>
   <v>       0.00300000 </v>
   <v>       0.00300000 </v>
   <v>       0.00300000 </v>
   <v>       0.00300000 </v>
   <v>       0.00300000 </v>
   <v>       0.00300000 </v>
   <v>       0.00300000 </v>
   <v>       0.00300000 </v>
   <v>       0.00600000 </v>
   <v>       0.00600000 </v>
   <v>       0.00600000 </v>
   <v>       0.00600000 </v>
   <v>       0.00600000 </v>
   <v>       0.00600000 </v>
   <v>       0.00600000 </v>
   <v>       0.00300000 </v>
   <v>       0.00600000 </v>
   <v>       0.00600000 </v>
   <v>       0.00600000 </v>
   <v>       0.00600000 </v>
   <v>       0.00600000 </v>
   <v>       0.00600000 </v>
   <v>       0.00300000 </v>
   <v>       0.00600000 </v>
   <v>       0.00600000 </v>
   <v>       0.00600000 </v>
   <v>       0.00600000 </v>
   <v>       0.00600000 </v>
   <v>       0.00300000 </v>
   <v>       0.00600000 </v>
   <v>       0.00600000 </v>
   <v>       0.00600000 </v>
   <v>       0.00600000 </v>
   <v>       0.00300000 </v>
   <v>       0.00600000 </v>
   <v>       0.00600000 </v>
   <v>       0.00600000 </v>
   <v>       0.00300000 </v>
   <v>       0.00600000 </v>
   <v>       0.00600000 </v>
   <v>       0.00300000 </v>
   <v>       0.00600000 </v>
   <v>       0.00300000 </v>
   <v>       0.00100000 </v>
   <v>       0.00300000 </v>
   <v>       0.00300000 </v>
   <v>       0.00300000 </v>
   <v>       0.00300000 </v>
   <v>       0.00300000 </v>
   <v>       0.00300000 </v>
   <v>       0.00300000 </v>
   <v>       0.00300000 </v>
   <v>       0.00600000 </v>
   <v>       0.00600000 </v>
   <v>       0.00600000 </v>
   <v>       0.00600000 </v>
   <v>       0.00600000 </v>
   <v>       0.00600000 </v>
   <v>       0.00300000 </v>
   <v>       0.00600000 </v>
   <v>       0.00600000 </v>
   <v>       0.00600000 </v>
   <v>       0.00600000 </v>
   <v>       0.00600000 </v>
   <v>       0.00300000 </v>
   <v>       0.00600000 </v>
   <v>       0.00600000 </v>
   <v>       0.00600000 </v>
   <v>       0.00600000 </v>
   <v>       0.00300000 </v>
   <v>       0.00600000 </v>
   <v>       0.00600000 </v>
   <v>       0.00600000 </v>
   <v>       0.00300000 </v>
   <v>       0.00600000 </v>
   <v>       0.00600000 </v>
   <v>       0.00300000 </v>
   <v>       0.00600000 </v>
   <v>       0.00300000 </v>
   <v>       0.00100000 </v>
   <v>       0.00300000 </v>
   <v>       0.00300000 </v>
   <v>       0.00300000 </v>
   <v>       0.00300000 </v>
   <v>       0.00300000 </v>
   <v>       0.00300000 </v>
   <v>       0.00300000 </v>
   <v>       0.00600000 </v>
   <v>       0.00600000 </v>
   <v>       0.00600000 </v>
   <v>       0.00600000 </v>
   <v>       0.00600000 </v>
   <v>       0.00300000 </v>
   <v>       0.00600000 </v>
   <v>       0.00600000 </v>
   <v>       0.00600000 </v>
   <v>       0.00600000 </v>
   <v>       0.00300000 </v>
   <v>       0.00600000 </v>
   <v>       0.00600000 </v>
   <v>       0.00600000 </v>
   <v>       0.00300000 </v>
   <v>       0.00600000 </v>
   <v>       0.00600000 </v>
   <v>       0.00300000 </v>
   <v>       0.00600000 </v>
   <v>       0.00300000 </v>
   <v>       0.00100000 </v>
   <v>       0.00300000 </v>
   <v>       0.00300000 </v>
   <v>       0.00300000 </v>
   <v>       0.00300000 </v>
   <v>       0.00300000 </v>
   <v>       0.00300000 </v>
   <v>       0.00600000 </v>
   <v>       0.00600000 </v>
   <v>       0.00600000 </v>
   <v>       0.00600000 </v>
   <v>       0.00300000 </v>
   <v>       0.00600000 </v>
   <v>       0.00600000 </v>
   <v>       0.00600000 </v>
   <v>       0.00300000 </v>
   <v>       0.00600000 </v>
   <v>       0.00600000 </v>
   <v>       0.00300000 </v>
   <v>       0.00600000 </v>
   <v>       0.00300000 </v>
   <v>       0.00100000 </v>
   <v>       0.00300000 </v>
   <v>       0.00300000 </v>
   <v>       0.00300000 </v>
   <v>       0.00300000 </v>
   <v>       0.00300000 </v>
   <v>       0.00600000 </v>
   <v>       0.00600000 </v>
   <v>       0.00600000 </v>
   <v>       0.00300000 </v>
   <v>       0.00600000 </v>
   <v>       0.00600000 </v>
   <v>       0.00300000 </v>
   <v>       0.00600000 </v>
   <v>       0.00300000 </v>
   <v>       0.00100000 </v>
   <v>       0.00300000 </v>
   <v>       0.00300000 </v>
   <v>       0.00300000 </v>
   <v>       0.00300000 </v>
   <v>       0.00600000 </v>
   <v>       0.00600000 </v>
   <v>       0.00300000 </v>
   <v>       0.00600000 </v>
   <v>       0.00300000 </v>
   <v>       0.00100000 </v>
   <v>       0.00300000 </v>
   <v>       0.00300000 </v>
   <v>       0.00300000 </v>
   <v>       0.00600000 </v>
   <v>       0.00300000 </v>
   <v>       0.00100000 </v>
   <v>       0.00300000 </v>
   <v>       0.00300000 </v>
   <v>       0.00100000 </v>
  </varray>
 </kpoints>
 <parameters>
  <separator name="general" >
   <i type="string" name="SYSTEM">Pt bulk calculation</i>
   <i type="logical" name="LCOMPAT"> F  </i>
  </separator>
  <separator name="electronic" >
   <i type="string" name="PREC">normal</i>
   <i name="ENMAX">    450.00000000</i>
   <i name="ENAUG">    358.96600000</i>
   <i name="EDIFF">      0.00000100</i>
   <i type="int" name="IALGO">    38</i>
   <i type="int" name="IWAVPR">    11</i>
   <i type="int" name="NBANDS">    24</i>
   <i name="NELECT">     40.00000000</i>
   <i type="int" name="TURBO">     0</i>
   <i type="int" name="IRESTART">     0</i>
   <i type="int" name="NREBOOT">     0</i>
   <i type="int" name="NMIN">     0</i>
   <i name="EREF">      0.00000000</i>
   <separator name="electronic smearing" >
    <i type="int" name="ISMEAR">     2</i>
    <i name="SIGMA">      0.20000000</i>
    <i name="KSPACING">      0.50000000</i>
    <i type="logical" name="KGAMMA"> T  </i>
   </separator>
   <separator name="electronic projectors" >
    <i type="logical" name="LREAL"> F  </i>
    <v name="ROPT">      0.00000000</v>
    <i type="int" name="LMAXPAW">  -100</i>
    <i type="int" name="LMAXMIX">     2</i>
    <i type="logical" name="NLSPLINE"> F  </i>
   </separator>
   <separator name="electronic startup" >
    <i type="int" name="ISTART">     0</i>
    <i type="int" name="ICHARG">     2</i>
    <i type="int" name="INIWAV">     1</i>
   </separator>
   <separator name="electronic spin" >
    <i type="int" name="ISPIN">     1</i>
    <i type="logical" name="LNONCOLLINEAR"> F  </i>
    <v name="MAGMOM">      1.00000000      1.00000000      1.00000000      1.00000000</v>
    <i name="NUPDOWN">     -1.00000000</i>
    <i type="logical" name="LSORBIT"> F  </i>
    <v name="SAXIS">      0.00000000      0.00000000      1.00000000</v>
    <i type="logical" name="LSPIRAL"> F  </i>
    <v name="QSPIRAL">      0.00000000      0.00000000      0.00000000</v>
    <i type="logical" name="LZEROZ"> F  </i>
   </separator>
   <separator name="electronic exchange-correlation" >
    <i type="logical" name="LASPH"> F  </i>
    <i type="logical" name="LMETAGGA"> F  </i>
   </separator>
   <separator name="electronic convergence" >
    <i type="int" name="NELM">    60</i>
    <i type="int" name="NELMDL">    -5</i>
    <i type="int" name="NELMIN">    10</i>
    <i name="ENINI">    450.00000000</i>
    <separator name="electronic convergence detail" >
     <i type="logical" name="LDIAG"> T  </i>
     <i type="logical" name="LSUBROT"> F  </i>
     <i name="WEIMIN">      0.00100000</i>
     <i name="EBREAK">      0.00000001</i>
     <i name="DEPER">      0.30000000</i>
     <i type="int" name="NRMM">     4</i>
     <i name="TIME">      0.40000000</i>
    </separator>
   </separator>
   <separator name="electronic mixer" >
    <i name="AMIX">      0.40000000</i>
    <i name="BMIX">      1.00000000</i>
    <i name="AMIN">      0.10000000</i>
    <i name="AMIX_MAG">      1.60000000</i>
    <i name="BMIX_MAG">      1.00000000</i>
    <separator name="electronic mixer details" >
     <i type="int" name="IMIX">     4</i>
     <i type="logical" name="MIXFIRST"> F  </i>
     <i type="int" name="MAXMIX">   -45</i>
     <i name="WC">    100.00000000</i>
     <i type="int" name="INIMIX">     1</i>
     <i type="int" name="MIXPRE">     1</i>
     <i type="int" name="MREMOVE">     5</i>
    </separator>
   </separator>
   <separator name="electronic dipolcorrection" >
    <i type="logical" name="LDIPOL"> F  </i>
    <i type="logical" name="LMONO"> F  </i>
    <i type="int" name="IDIPOL">     0</i>
    <i name="EPSILON">      1.00000000</i>
    <v name="DIPOL">   -100.00000000   -100.00000000   -100.00000000</v>
    <i name="EFIELD">      0.00000000</i>
   </separator>
  </separator>
  <separator name="grids" >
   <i type="int" name="NGX">    24</i>
   <i type="int" name="NGY">    24</i>
   <i type="int" name="NGZ">    24</i>
   <i type="int" name="NGXF">    48</i>
   <i type="int" name="NGYF">    48</i>
   <i type="int" name="NGZF">    48</i>
   <i type="logical" name="ADDGRID"> F  </i>
  </separator>
  <separator name="ionic" >
   <i type="int" name="NSW">    10</i>
   <i type="int" name="IBRION">     2</i>
   <i type="int" name="MDALGO">     0</i>
   <i type="int" name="ISIF">     2</i>
   <i name="PSTRESS">      0.00000000</i>
   <i name="EDIFFG">     -0.02000000</i>
   <i type="int" name="NFREE">     1</i>
   <i name="POTIM">      0.20000000</i>
   <i name="SMASS">     -3.00000000</i>
   <i name="SCALEE">      1.00000000</i>
  </separator>
  <separator name="ionic md" >
   <i name="TEBEG">      0.00010000</i>
   <i name="TEEND">      0.00010000</i>
   <i type="int" name="NBLOCK">     1</i>
   <i type="int" name="KBLOCK">    10</i>
   <i type="int" name="NPACO">   256</i>
   <i name="APACO">     16.00000000</i>
  </separator>
  <separator name="symmetry" >
   <i type="int" name="ISYM">     2</i>
   <i name="SYMPREC">      0.00001000</i>
  </separator>
  <separator name="dos" >
   <i type="int" name="LORBIT">     0</i>
   <v name="RWIGS">     -1.00000000</v>
   <i type="int" name="NEDOS">   301</i>
   <i name="EMIN">     10.00000000</i>
   <i name="EMAX">    -10.00000000</i>
   <i name="EFERMI">      0.00000000</i>
  </separator>
  <separator name="writing" >
   <i type="int" name="NWRITE">     2</i>
   <i type="logical" name="LWAVE"> T  </i>
   <i type="logical" name="LDOWNSAMPLE"> F  </i>
   <i type="logical" name="LCHARG"> T  </i>
   <i type="logical" name="LPARD"> F  </i>
   <i type="logical" name="LVTOT"> F  </i>
   <i type="logical" name="LVHAR"> F  </i>
   <i type="logical" name="LELF"> F  </i>
   <i type="logical" name="LOPTICS"> F  </i>
   <v name="STM">      0.00000000      0.00000000      0.00000000      0.00000000      0.00000000      0.00000000      0.00000000</v>
  </separator>
  <separator name="performance" >
   <i type="int" name="NPAR">     2</i>
   <i type="int" name="NSIM">     4</i>
   <i type="int" name="NBLK">    -1</i>
   <i type="logical" name="LPLANE"> T  </i>
   <i type="logical" name="LSCALAPACK"> F  </i>
   <i type="logical" name="LSCAAWARE"> F  </i>
   <i type="logical" name="LSCALU"> F  </i>
   <i type="logical" name="LASYNC"> F  </i>
   <i type="logical" name="LORBITALREAL"> F  </i>
  </separator>
  <separator name="miscellaneous" >
   <i type="int" name="IDIOT">     3</i>
   <i type="int" name="ISPECIAL">     0</i>
   <i type="logical" name="LMUSIC"> F  </i>
   <v name="POMASS">    195.08000000</v>
   <v name="DARWINR">      0.00000000</v>
   <v name="DARWINV">      1.00000000</v>
   <i type="logical" name="LCORR"> T  </i>
  </separator>
  <i type="logical" name="GGA_COMPAT"> T  </i>
  <i type="logical" name="LBERRY"> F  </i>
  <i type="int" name="ICORELEVEL">     0</i>
  <i type="logical" name="LDAU"> F  </i>
  <i type="int" name="I_CONSTRAINED_M">     0</i>
  <separator name="electronic exchange-correlation" >
   <i type="string" name="GGA">91</i>
   <i type="int" name="VOSKOWN">     0</i>
   <i type="logical" name="LHFCALC"> F  </i>
   <i type="string" name="PRECFOCK"></i>
   <i type="logical" name="LSYMGRAD"> F  </i>
   <i type="logical" name="LHFONE"> F  </i>
   <i type="logical" name="LRHFCALC"> F  </i>
   <i type="logical" name="LTHOMAS"> F  </i>
   <i type="logical" name="LMODELHF"> F  </i>
   <i name="ENCUT4O">     -1.00000000</i>
   <i type="int" name="EXXOEP">     0</i>
   <i type="int" name="FOURORBIT">     0</i>
   <i name="AEXX">      0.00000000</i>
   <i name="HFALPHA">      0.00000000</i>
   <i name="MCALPHA">      0.00000000</i>
   <i name="ALDAX">      1.00000000</i>
   <i name="AGGAX">      1.00000000</i>
   <i name="ALDAC">      1.00000000</i>
   <i name="AGGAC">      1.00000000</i>
   <i type="int" name="NKREDX">     1</i>
   <i type="int" name="NKREDY">     1</i>
   <i type="int" name="NKREDZ">     1</i>
   <i type="logical" name="SHIFTRED"> F  </i>
   <i type="logical" name="ODDONLY"> F  </i>
   <i type="logical" name="EVENONLY"> F  </i>
   <i type="int" name="LMAXFOCK">     0</i>
   <i type="int" name="NMAXFOCKAE">     0</i>
   <i type="logical" name="LFOCKAEDFT"> F  </i>
   <i name="HFSCREEN">      0.00000000</i>
   <i name="HFSCREENC">      0.00000000</i>
   <i type="int" name="NBANDSGWLOW">     0</i>
  </separator>
  <separator name="vdW DFT" >
   <i type="logical" name="LUSE_VDW"> F  </i>
   <i name="Zab_VDW">     -0.84910000</i>
   <i name="PARAM1">      0.12340000</i>
   <i name="PARAM2">      1.00000000</i>
   <i name="PARAM3">      0.00000000</i>
  </separator>
  <separator name="model GW" >
   <i type="int" name="MODEL_GW">     0</i>
   <i name="MODEL_EPS0">     11.59631640</i>
   <i name="MODEL_ALPHA">      1.00000000</i>
  </separator>
  <separator name="linear response parameters" >
   <i type="logical" name="LEPSILON"> F  </i>
   <i type="logical" name="LRPA"> F  </i>
   <i type="logical" name="LNABLA"> F  </i>
   <i type="logical" name="LVEL"> F  </i>
   <i type="int" name="KINTER">     0</i>
   <i name="CSHIFT">      0.10000000</i>
   <i name="OMEGAMAX">     -1.00000000</i>
   <i name="DEG_THRESHOLD">      0.00200000</i>
   <i name="RTIME">     -0.10000000</i>
   <i name="WPLASMAI">      0.00000000</i>
   <v name="DFIELD">      0.00000000      0.00000000      0.00000000</v>
   <v name="WPLASMA">      0.00000000      0.00000000      0.00000000      0.00000000      0.00000000      0.00000000      0.00000000      0.00000000      0.00000000</v>
  </separator>
  <separator name="orbital magnetization" >
   <i type="logical" name="NUCIND"> F  </i>
   <v name="MAGPOS">      0.00000000      0.00000000      0.00000000</v>
   <i type="logical" name="LNICSALL"> T  </i>
   <i type="logical" name="ORBITALMAG"> F  </i>
   <i type="logical" name="LMAGBLOCH"> F  </i>
   <i type="logical" name="LCHIMAG"> F  </i>
   <i type="logical" name="LGAUGE"> T  </i>
   <i type="int" name="MAGATOM">     0</i>
   <v name="MAGDIPOL">      0.00000000      0.00000000      0.00000000</v>
   <v name="AVECCONST">      0.00000000      0.00000000      0.00000000</v>
  </separator>
  <separator name="response functions" >
   <i type="logical" name="LADDER"> F  </i>
   <i type="logical" name="LRPAFORCE"> F  </i>
   <i type="logical" name="LFXC"> F  </i>
   <i type="logical" name="LHARTREE"> T  </i>
   <i type="int" name="IBSE">     0</i>
   <v type="int" name="KPOINT">    -1     0     0     0</v>
   <i type="logical" name="LTCTE"> F  </i>
   <i type="logical" name="LTETE"> F  </i>
   <i type="logical" name="LTRIPLET"> F  </i>
   <i type="logical" name="LFXCEPS"> F  </i>
   <i type="logical" name="LFXHEG"> F  </i>
   <i type="int" name="NATURALO">     2</i>
   <i type="logical" name="L2ORDER"> F  </i>
   <i type="logical" name="LMP2LT"> F  </i>
   <i type="logical" name="LUSEW"> F  </i>
   <i name="ENCUTGW">     -2.00000000</i>
   <i name="ENCUTGWSOFT">     -2.00000000</i>
   <i name="ENCUTLF">     -1.00000000</i>
   <i type="int" name="LMAXMP2">    -1</i>
   <i name="SCISSOR">      0.00000000</i>
   <i type="int" name="NOMEGA">     0</i>
   <i type="int" name="NOMEGAR">     0</i>
   <i type="int" name="NBANDSGW">    -1</i>
   <i type="int" name="NBANDSO">    -1</i>
   <i type="int" name="NBANDSV">    -1</i>
   <i type="int" name="NELM">     1</i>
   <i type="int" name="NELMHF">     1</i>
   <i type="int" name="DIM">     3</i>
   <i type="int" name="ANTIRES">     0</i>
   <i name="OMEGAMAX">    -30.00000000</i>
   <i name="OMEGAMIN">    -30.00000000</i>
   <i name="OMEGATL">   -200.00000000</i>
   <i type="int" name="OMEGAGRID">   140</i>
   <i name="CSHIFT">     -0.10000000</i>
   <i type="logical" name="SELFENERGY"> F  </i>
   <i type="logical" name="LSPECTRAL"> F  </i>
   <i type="logical" name="LSPECTRALGW"> F  </i>
   <i type="logical" name="LSINGLES"> F  </i>
   <i type="logical" name="LFERMIGW"> F  </i>
   <i type="logical" name="ODDONLYGW"> F  </i>
   <i type="logical" name="EVENONLYGW"> F  </i>
   <i type="int" name="NKREDLFX">     1</i>
   <i type="int" name="NKREDLFY">     1</i>
   <i type="int" name="NKREDLFZ">     1</i>
   <i type="int" name="MAXMEM">  2800</i>
   <i type="int" name="TELESCOPE">     0</i>
   <i type="int" name="TAUPAR">     1</i>
   <i type="int" name="OMEGAPAR">    -1</i>
   <i name="LAMBDA">      1.00000000</i>
  </separator>
  <separator name="External order field" >
   <i name="OFIELD_KAPPA">      0.00000000</i>
   <v name="OFIELD_K">      0.00000000      0.00000000      0.00000000</v>
   <i name="OFIELD_Q6_NEAR">      0.00000000</i>
   <i name="OFIELD_Q6_FAR">      0.00000000</i>
   <i name="OFIELD_A">      0.00000000</i>
  </separator>
 </parameters>
 <atominfo>
  <atoms>       4 </atoms>
  <types>       1 </types>
  <array name="atoms" >
   <dimension dim="1">ion</dimension>
   <field type="string">element</field>
   <field type="int">atomtype</field>
   <set>
    <rc><c>Pt</c><c>   1</c></rc>
    <rc><c>Pt</c><c>   1</c></rc>
    <rc><c>Pt</c><c>   1</c></rc>
    <rc><c>Pt</c><c>   1</c></rc>
   </set>
  </array>
  <array name="atomtypes" >
   <dimension dim="1">type</dimension>
   <field type="int">atomspertype</field>
   <field type="string">element</field>
   <field>mass</field>
   <field>valence</field>
   <field type="string">pseudopotential</field>
   <set>
    <rc><c>   4</c><c>Pt</c><c>    195.08000000</c><c>     10.00000000</c><c> PAW_PBE Pt 05Jan2001                   </c></rc>
   </set>
  </array>
 </atominfo>
 <structure name="initialpos" >
  <crystal>
   <varray name="basis" >
    <v>       4.26000000       0.00000000       0.00000000 </v>
    <v>       0.00000000       4.26000000       0.00000000 </v>
    <v>       0.00000000       0.00000000       4.26000000 </v>
   </varray>
   <i name="volume">     77.30877600 </i>
   <varray name="rec_basis" >
    <v>       0.23474178       0.00000000       0.00000000 </v>
    <v>       0.00000000       0.23474178       0.00000000 </v>
    <v>       0.00000000       0.00000000       0.23474178 </v>
   </varray>
  </crystal>
  <varray name="positions" >
   <v>       0.00000000       0.00000000       0.00000000 </v>
   <v>       0.00000000       0.50000000       0.50000000 </v>
   <v>       0.50000000       0.00000000       0.50000000 </v>
   <v>       0.50000000       0.50000000       0.00000000 </v>
  </varray>
 </structure>
 <calculation>
  <scstep>
   <time name="dav">    2.13    2.13</time>
   <time name="total">    2.16    2.25</time>
   <energy>
    <i name="alphaZ">    301.12033852 </i>
    <i name="ewald">  -3099.57928437 </i>
    <i name="hartreedc">   -379.31066553 </i>
    <i name="XCdc">     10.74590597 </i>
    <i name="pawpsdc">   2293.79710215 </i>
    <i name="pawaedc">  -2181.03440391 </i>
    <i name="eentropy">      0.00080902 </i>
    <i name="bandstr">    543.86668924 </i>
    <i name="atom">   2915.53815049 </i>
    <i name="e_fr_energy">    405.14464159 </i>
    <i name="e_wo_entrp">    405.14383256 </i>
    <i name="e_0_energy">    405.14443933 </i>
   </energy>
  </scstep>
  <scstep>
   <time name="dav">    2.08    2.09</time>
   <time name="total">    2.10    2.10</time>
   <energy>
    <i name="e_fr_energy">      7.20287231 </i>
    <i name="e_wo_entrp">      7.20504599 </i>
    <i name="e_0_energy">      7.20341573 </i>
   </energy>
  </scstep>
  <scstep>
   <time name="dav">    2.80    2.80</time>
   <time name="total">    2.82    2.82</time>
   <energy>
    <i name="e_fr_energy">    -23.52600594 </i>
    <i name="e_wo_entrp">    -23.51929187 </i>
    <i name="e_0_energy">    -23.52432742 </i>
   </energy>
  </scstep>
  <scstep>
   <time name="dav">    2.19    2.20</time>
   <time name="total">    2.21    2.22</time>
   <energy>
    <i name="e_fr_energy">    -24.59509726 </i>
    <i name="e_wo_entrp">    -24.58627041 </i>
    <i name="e_0_energy">    -24.59289055 </i>
   </energy>
  </scstep>
  <scstep>
   <time name="dav">    2.58    2.58</time>
   <time name="total">    2.73    2.73</time>
   <energy>
    <i name="e_fr_energy">    -24.63395702 </i>
    <i name="e_wo_entrp">    -24.62504073 </i>
    <i name="e_0_energy">    -24.63172795 </i>
   </energy>
  </scstep>
  <scstep>
   <time name="dav">    2.54    2.54</time>
   <time name="total">    2.69    2.69</time>
   <energy>
    <i name="e_fr_energy">    -22.97973857 </i>
    <i name="e_wo_entrp">    -22.97042577 </i>
    <i name="e_0_energy">    -22.97741037 </i>
   </energy>
  </scstep>
  <scstep>
   <time name="dav">    2.83    2.83</time>
   <time name="total">    2.99    2.99</time>
   <energy>
    <i name="e_fr_energy">    -22.93487148 </i>
    <i name="e_wo_entrp">    -22.92526478 </i>
    <i name="e_0_energy">    -22.93246981 </i>
   </energy>
  </scstep>
  <scstep>
   <time name="dav">    2.04    2.04</time>
   <time name="total">    2.20    2.20</time>
   <energy>
    <i name="e_fr_energy">    -22.92865972 </i>
    <i name="e_wo_entrp">    -22.91911671 </i>
    <i name="e_0_energy">    -22.92627397 </i>
   </energy>
  </scstep>
  <scstep>
   <time name="dav">    2.74    2.75</time>
   <time name="total">    2.90    2.91</time>
   <energy>
    <i name="e_fr_energy">    -22.92848803 </i>
    <i name="e_wo_entrp">    -22.91889566 </i>
    <i name="e_0_energy">    -22.92608994 </i>
   </energy>
  </scstep>
  <scstep>
   <time name="dav">    2.31    2.31</time>
   <time name="total">    2.47    2.47</time>
   <energy>
    <i name="e_fr_energy">    -22.92849648 </i>
    <i name="e_wo_entrp">    -22.91891550 </i>
    <i name="e_0_energy">    -22.92610123 </i>
   </energy>
  </scstep>
  <scstep>
   <time name="dav">    1.62    1.62</time>
   <time name="total">    1.78    1.78</time>
   <energy>
    <i name="e_fr_energy">    -22.92849769 </i>
    <i name="e_wo_entrp">    -22.91891735 </i>
    <i name="e_0_energy">    -22.92610260 </i>
   </energy>
  </scstep>
  <scstep>
   <time name="dav">    1.33    1.33</time>
   <time name="total">    1.35    1.36</time>
   <energy>
    <i name="alphaZ">    301.12033852 </i>
    <i name="ewald">  -3099.57928437 </i>
    <i name="hartreedc">   -337.93033580 </i>
    <i name="XCdc">      9.00888742 </i>
    <i name="pawpsdc">   2267.77629882 </i>
    <i name="pawaedc">  -2161.09755860 </i>
    <i name="eentropy">     -0.00958062 </i>
    <i name="bandstr">     82.24458678 </i>
    <i name="atom">   2915.53815049 </i>
    <i name="e_fr_energy">    -22.92849735 </i>
    <i name="e_wo_entrp">    -22.91891673 </i>
    <i name="e_0_energy">    -22.92610220 </i>
   </energy>
  </scstep>
  <structure>
   <crystal>
    <varray name="basis" >
     <v>       4.26000000       0.00000000       0.00000000 </v>
     <v>       0.00000000       4.26000000       0.00000000 </v>
     <v>       0.00000000       0.00000000       4.26000000 </v>
    </varray>
    <i name="volume">     77.30877600 </i>
    <varray name="rec_basis" >
     <v>       0.23474178       0.00000000       0.00000000 </v>
     <v>       0.00000000       0.23474178       0.00000000 </v>
     <v>       0.00000000       0.00000000       0.23474178 </v>
    </varray>
   </crystal>
   <varray name="positions" >
    <v>       0.00000000       0.00000000       0.00000000 </v>
    <v>       0.00000000       0.50000000       0.50000000 </v>
    <v>       0.50000000       0.00000000       0.50000000 </v>
    <v>       0.50000000       0.50000000       0.00000000 </v>
   </varray>
  </structure>
  <varray name="forces" >
   <v>      -0.00000000      -0.00000000       0.00000000 </v>
   <v>      -0.00000000       0.00000000      -0.00000000 </v>
   <v>       0.00000000      -0.00000000      -0.00000000 </v>
   <v>       0.00000000       0.00000000       0.00000000 </v>
  </varray>
  <varray name="stress" >
   <v>    -276.98884256       0.00000000       0.00000000 </v>
   <v>       0.00000000    -276.98884256       0.00000000 </v>
   <v>      -0.00000000      -0.00000000    -276.98884256 </v>
  </varray>
  <energy>
   <i name="e_fr_energy">    -22.92849735 </i>
   <i name="e_wo_entrp">    -22.92610220 </i>
   <i name="e_0_energy">     -0.00958062 </i>
  </energy>
  <time name="totalsc">   30.57   32.92</time>
  <eigenvalues>
   <array>
    <dimension dim="1">band</dimension>
    <dimension dim="2">kpoint</dimension>
    <dimension dim="3">spin</dimension>
    <field>eigene</field>
    <field>occ</field>
    <set>
     <set comment="spin 1">
      <set comment="kpoint 1">
       <r>   -3.1912    1.0000 </r>
       <r>   -0.2647    1.0000 </r>
       <r>   -0.2647    1.0000 </r>
       <r>   -0.2647    1.0000 </r>
       <r>    0.0491    1.0000 </r>
       <r>    0.0491    1.0000 </r>
       <r>    0.0491    1.0000 </r>
       <r>    1.9480    1.0000 </r>
       <r>    1.9623    1.0000 </r>
       <r>    1.9623    1.0000 </r>
       <r>    3.3873    1.0000 </r>
       <r>    3.3873    1.0000 </r>
       <r>    4.4518    0.6317 </r>
       <r>    4.4518    0.6317 </r>
       <r>    4.4518    0.6317 </r>
       <r>    4.7086   -0.0415 </r>
       <r>    4.7086   -0.0415 </r>
       <r>    4.7086   -0.0415 </r>
       <r>    4.7650   -0.0156 </r>
       <r>    4.7650   -0.0156 </r>
       <r>    4.7650   -0.0156 </r>
       <r>    6.8155    0.0000 </r>
       <r>    6.8155    0.0000 </r>
       <r>    6.8155    0.0000 </r>
      </set>
      <set comment="kpoint 2">
       <r>   -3.1379    1.0000 </r>
       <r>   -0.2495    1.0000 </r>
       <r>   -0.2282    1.0000 </r>
       <r>   -0.2282    1.0000 </r>
       <r>    0.0689    1.0000 </r>
       <r>    0.0784    1.0000 </r>
       <r>    0.0784    1.0000 </r>
       <r>    1.9219    1.0000 </r>
       <r>    1.9842    1.0000 </r>
       <r>    1.9861    1.0000 </r>
       <r>    3.3571    1.0000 </r>
       <r>    3.3997    1.0000 </r>
       <r>    4.4035    0.8506 </r>
       <r>    4.4035    0.8506 </r>
       <r>    4.4342    0.7185 </r>
       <r>    4.4940    0.4103 </r>
       <r>    4.4940    0.4103 </r>
       <r>    4.6485   -0.0477 </r>
       <r>    4.7148   -0.0387 </r>
       <r>    4.7622   -0.0167 </r>
       <r>    4.7622   -0.0167 </r>
       <r>    6.4387    0.0000 </r>
       <r>    7.0725    0.0000 </r>
       <r>    7.0725    0.0000 </r>
      </set>
      <set comment="kpoint 3">
       <r>   -3.0318    1.0000 </r>
       <r>   -0.2219    1.0000 </r>
       <r>   -0.1566    1.0000 </r>
       <r>   -0.1566    1.0000 </r>
       <r>    0.1082    1.0000 </r>
       <r>    0.1370    1.0000 </r>
       <r>    0.1370    1.0000 </r>
       <r>    1.8669    1.0000 </r>
       <r>    2.0319    1.0000 </r>
       <r>    2.0336    1.0000 </r>
       <r>    3.2981    1.0000 </r>
       <r>    3.4243    1.0000 </r>
       <r>    4.1426    1.0011 </r>
       <r>    4.1426    1.0011 </r>
       <r>    4.3275    1.0322 </r>
       <r>    4.3275    1.0322 </r>
       <r>    4.3971    0.8745 </r>
       <r>    4.5292    0.2380 </r>
       <r>    4.6208   -0.0258 </r>
       <r>    4.7619   -0.0169 </r>
       <r>    4.7619   -0.0169 </r>
       <r>    5.8593    0.0000 </r>
       <r>    7.4833    0.0000 </r>
       <r>    7.4833    0.0000 </r>
      </set>
      <set comment="kpoint 4">
       <r>   -2.8742    1.0000 </r>
       <r>   -0.1878    1.0000 </r>
       <r>   -0.0527    1.0000 </r>
       <r>   -0.0527    1.0000 </r>
       <r>    0.1664    1.0000 </r>
       <r>    0.2247    1.0000 </r>
       <r>    0.2247    1.0000 </r>
       <r>    1.7869    1.0000 </r>
       <r>    2.1033    1.0000 </r>
       <r>    2.1045    1.0000 </r>
       <r>    3.2131    1.0000 </r>
       <r>    3.4606    1.0000 </r>
       <r>    3.7586    1.0000 </r>
       <r>    3.7586    1.0000 </r>
       <r>    4.1999    1.0203 </r>
       <r>    4.1999    1.0203 </r>
       <r>    4.3319    1.0273 </r>
       <r>    4.3473    1.0055 </r>
       <r>    4.4996    0.3815 </r>
       <r>    4.7619   -0.0169 </r>
       <r>    4.7619   -0.0169 </r>
       <r>    5.2291    0.0000 </r>
       <r>    7.9702    0.0000 </r>
       <r>    7.9702    0.0000 </r>
      </set>
      <set comment="kpoint 5">
       <r>   -2.6673    1.0000 </r>
       <r>   -0.1577    1.0000 </r>
       <r>    0.0791    1.0000 </r>
       <r>    0.0791    1.0000 </r>
       <r>    0.2427    1.0000 </r>
       <r>    0.3414    1.0000 </r>
       <r>    0.3414    1.0000 </r>
       <r>    1.6851    1.0000 </r>
       <r>    2.1975    1.0000 </r>
       <r>    2.1984    1.0000 </r>
       <r>    3.1068    1.0000 </r>
       <r>    3.3642    1.0000 </r>
       <r>    3.3642    1.0000 </r>
       <r>    3.5079    1.0000 </r>
       <r>    4.0396    0.9957 </r>
       <r>    4.0396    0.9957 </r>
       <r>    4.0768    0.9951 </r>
       <r>    4.2143    1.0270 </r>
       <r>    4.3859    0.9122 </r>
       <r>    4.6596   -0.0509 </r>
       <r>    4.7620   -0.0168 </r>
       <r>    4.7620   -0.0168 </r>
       <r>    8.4943    0.0000 </r>
       <r>    8.4943    0.0000 </r>
      </set>
      <set comment="kpoint 6">
       <r>   -2.4143    1.0000 </r>
       <r>   -0.1477    1.0000 </r>
       <r>    0.2319    1.0000 </r>
       <r>    0.2319    1.0000 </r>
       <r>    0.3358    1.0000 </r>
       <r>    0.4865    1.0000 </r>
       <r>    0.4865    1.0000 </r>
       <r>    1.5653    1.0000 </r>
       <r>    2.3130    1.0000 </r>
       <r>    2.3145    1.0000 </r>
       <r>    2.9765    1.0000 </r>
       <r>    2.9765    1.0000 </r>
       <r>    2.9862    1.0000 </r>
       <r>    3.5652    1.0000 </r>
       <r>    3.6781    1.0000 </r>
       <r>    3.8545    0.9998 </r>
       <r>    3.8545    0.9998 </r>
       <r>    4.0387    0.9957 </r>
       <r>    4.2469    1.0421 </r>
       <r>    4.2963    1.0505 </r>
       <r>    4.7622   -0.0167 </r>
       <r>    4.7622   -0.0167 </r>
       <r>    9.0305    0.0000 </r>
       <r>    9.0305    0.0000 </r>
      </set>
      <set comment="kpoint 7">
       <r>   -2.1201    1.0000 </r>
       <r>   -0.1813    1.0000 </r>
       <r>    0.3955    1.0000 </r>
       <r>    0.3955    1.0000 </r>
       <r>    0.4444    1.0000 </r>
       <r>    0.6589    1.0000 </r>
       <r>    0.6589    1.0000 </r>
       <r>    1.4316    1.0000 </r>
       <r>    2.4456    1.0000 </r>
       <r>    2.4519    1.0000 </r>
       <r>    2.6038    1.0000 </r>
       <r>    2.6038    1.0000 </r>
       <r>    2.8628    1.0000 </r>
       <r>    3.2365    1.0000 </r>
       <r>    3.6315    1.0000 </r>
       <r>    3.6585    1.0000 </r>
       <r>    3.6585    1.0000 </r>
       <r>    3.8332    0.9999 </r>
       <r>    3.9522    0.9986 </r>
       <r>    4.2135    1.0266 </r>
       <r>    4.7624   -0.0166 </r>
       <r>    4.7624   -0.0166 </r>
       <r>    9.5413    0.0000 </r>
       <r>    9.5413    0.0000 </r>
      </set>
      <set comment="kpoint 8">
       <r>   -1.7922    1.0000 </r>
       <r>   -0.2858    1.0000 </r>
       <r>    0.5543    1.0000 </r>
       <r>    0.5543    1.0000 </r>
       <r>    0.5664    1.0000 </r>
       <r>    0.8579    1.0000 </r>
       <r>    0.8579    1.0000 </r>
       <r>    1.2883    1.0000 </r>
       <r>    2.2509    1.0000 </r>
       <r>    2.2509    1.0000 </r>
       <r>    2.5715    1.0000 </r>
       <r>    2.6093    1.0000 </r>
       <r>    2.7706    1.0000 </r>
       <r>    2.8718    1.0000 </r>
       <r>    3.4714    1.0000 </r>
       <r>    3.4714    1.0000 </r>
       <r>    3.6159    1.0000 </r>
       <r>    3.6970    1.0000 </r>
       <r>    3.7053    1.0000 </r>
       <r>    4.1295    0.9988 </r>
       <r>    4.7626   -0.0166 </r>
       <r>    4.7626   -0.0166 </r>
       <r>    9.8980    0.0000 </r>
       <r>    9.8980    0.0000 </r>
      </set>
      <set comment="kpoint 9">
       <r>   -1.4423    1.0000 </r>
       <r>   -0.4793    1.0000 </r>
       <r>    0.6857    1.0000 </r>
       <r>    0.6857    1.0000 </r>
       <r>    0.6997    1.0000 </r>
       <r>    1.0831    1.0000 </r>
       <r>    1.0831    1.0000 </r>
       <r>    1.1396    1.0000 </r>
       <r>    1.9206    1.0000 </r>
       <r>    1.9206    1.0000 </r>
       <r>    2.5720    1.0000 </r>
       <r>    2.6346    1.0000 </r>
       <r>    2.7850    1.0000 </r>
       <r>    2.8422    1.0000 </r>
       <r>    3.3197    1.0000 </r>
       <r>    3.3197    1.0000 </r>
       <r>    3.3966    1.0000 </r>
       <r>    3.4580    1.0000 </r>
       <r>    3.7852    1.0000 </r>
       <r>    4.0433    0.9956 </r>
       <r>    4.7628   -0.0165 </r>
       <r>    4.7628   -0.0165 </r>
       <r>    9.9835    0.0000 </r>
       <r>    9.9835    0.0000 </r>
      </set>
      <set comment="kpoint 10">
       <r>   -1.0881    1.0000 </r>
       <r>   -0.7561    1.0000 </r>
       <r>    0.7619    1.0000 </r>
       <r>    0.7619    1.0000 </r>
       <r>    0.8418    1.0000 </r>
       <r>    0.9895    1.0000 </r>
       <r>    1.3350    1.0000 </r>
       <r>    1.3350    1.0000 </r>
       <r>    1.6154    1.0000 </r>
       <r>    1.6154    1.0000 </r>
       <r>    2.5209    1.0000 </r>
       <r>    2.5271    1.0000 </r>
       <r>    2.9768    1.0000 </r>
       <r>    3.0234    1.0000 </r>
       <r>    3.1820    1.0000 </r>
       <r>    3.2325    1.0000 </r>
       <r>    3.2329    1.0000 </r>
       <r>    3.2329    1.0000 </r>
       <r>    3.8693    0.9998 </r>
       <r>    3.9560    0.9985 </r>
       <r>    4.7629   -0.0165 </r>
       <r>    4.7629   -0.0165 </r>
       <r>    9.9833    0.0000 </r>
       <r>    9.9833    0.0000 </r>
      </set>
      <set comment="kpoint 11">
       <r>   -3.0849    1.0000 </r>
       <r>   -0.2128    1.0000 </r>
       <r>   -0.2128    1.0000 </r>
       <r>   -0.1949    1.0000 </r>
       <r>    0.0979    1.0000 </r>
       <r>    0.0979    1.0000 </r>
       <r>    0.1097    1.0000 </r>
       <r>    1.9075    1.0000 </r>
       <r>    1.9956    1.0000 </r>
       <r>    2.0078    1.0000 </r>
       <r>    3.3488    1.0000 </r>
       <r>    3.3922    1.0000 </r>
       <r>    4.3326    1.0265 </r>
       <r>    4.3465    1.0068 </r>
       <r>    4.3465    1.0068 </r>
       <r>    4.3637    0.9728 </r>
       <r>    4.4598    0.5907 </r>
       <r>    4.4598    0.5907 </r>
       <r>    4.7137   -0.0393 </r>
       <r>    4.7137   -0.0393 </r>
       <r>    4.7333   -0.0300 </r>
       <r>    6.7003    0.0000 </r>
       <r>    6.7003    0.0000 </r>
       <r>    7.2961    0.0000 </r>
      </set>
      <set comment="kpoint 12">
       <r>   -2.9796    1.0000 </r>
       <r>   -0.1847    1.0000 </r>
       <r>   -0.1407    1.0000 </r>
       <r>   -0.1294    1.0000 </r>
       <r>    0.1367    1.0000 </r>
       <r>    0.1560    1.0000 </r>
       <r>    0.1721    1.0000 </r>
       <r>    1.8605    1.0000 </r>
       <r>    2.0364    1.0000 </r>
       <r>    2.0522    1.0000 </r>
       <r>    3.2988    1.0000 </r>
       <r>    3.4116    1.0000 </r>
       <r>    4.0352    0.9958 </r>
       <r>    4.0425    0.9956 </r>
       <r>    4.2173    1.0284 </r>
       <r>    4.2824    1.0516 </r>
       <r>    4.3391    1.0181 </r>
       <r>    4.4019    0.8567 </r>
       <r>    4.6245   -0.0300 </r>
       <r>    4.7120   -0.0400 </r>
       <r>    4.7168   -0.0379 </r>
       <r>    6.1425    0.0000 </r>
       <r>    7.1009    0.0000 </r>
       <r>    7.6710    0.0000 </r>
      </set>
      <set comment="kpoint 13">
       <r>   -2.8232    1.0000 </r>
       <r>   -0.1498    1.0000 </r>
       <r>   -0.0359    1.0000 </r>
       <r>   -0.0342    1.0000 </r>
       <r>    0.1941    1.0000 </r>
       <r>    0.2430    1.0000 </r>
       <r>    0.2651    1.0000 </r>
       <r>    1.7846    1.0000 </r>
       <r>    2.1051    1.0000 </r>
       <r>    2.1180    1.0000 </r>
       <r>    3.2184    1.0000 </r>
       <r>    3.4497    1.0000 </r>
       <r>    3.6526    1.0000 </r>
       <r>    3.6903    1.0000 </r>
       <r>    4.0101    0.9968 </r>
       <r>    4.1631    1.0063 </r>
       <r>    4.2141    1.0269 </r>
       <r>    4.3132    1.0438 </r>
       <r>    4.5118    0.3201 </r>
       <r>    4.7096   -0.0411 </r>
       <r>    4.7106   -0.0406 </r>
       <r>    5.5530    0.0000 </r>
       <r>    7.5577    0.0000 </r>
       <r>    8.1305    0.0000 </r>
      </set>
      <set comment="kpoint 14">
       <r>   -2.6178    1.0000 </r>
       <r>   -0.1188    1.0000 </r>
       <r>    0.0873    1.0000 </r>
       <r>    0.0971    1.0000 </r>
       <r>    0.2694    1.0000 </r>
       <r>    0.3586    1.0000 </r>
       <r>    0.3872    1.0000 </r>
       <r>    1.6859    1.0000 </r>
       <r>    2.1980    1.0000 </r>
       <r>    2.2038    1.0000 </r>
       <r>    3.1178    1.0000 </r>
       <r>    3.2621    1.0000 </r>
       <r>    3.3179    1.0000 </r>
       <r>    3.5009    1.0000 </r>
       <r>    3.7243    1.0000 </r>
       <r>    4.0104    0.9967 </r>
       <r>    4.0586    0.9952 </r>
       <r>    4.1784    1.0115 </r>
       <r>    4.3947    0.8830 </r>
       <r>    4.7063   -0.0425 </r>
       <r>    4.7095   -0.0411 </r>
       <r>    5.0225    0.0009 </r>
       <r>    8.0298    0.0000 </r>
       <r>    8.6341    0.0000 </r>
      </set>
      <set comment="kpoint 15">
       <r>   -2.3666    1.0000 </r>
       <r>   -0.1079    1.0000 </r>
       <r>    0.2307    1.0000 </r>
       <r>    0.2514    1.0000 </r>
       <r>    0.3612    1.0000 </r>
       <r>    0.5023    1.0000 </r>
       <r>    0.5353    1.0000 </r>
       <r>    1.5690    1.0000 </r>
       <r>    2.3049    1.0000 </r>
       <r>    2.3139    1.0000 </r>
       <r>    2.8806    1.0000 </r>
       <r>    2.9458    1.0000 </r>
       <r>    3.0073    1.0000 </r>
       <r>    3.3752    1.0000 </r>
       <r>    3.5634    1.0000 </r>
       <r>    3.8328    0.9999 </r>
       <r>    3.8783    0.9997 </r>
       <r>    4.0014    0.9971 </r>
       <r>    4.2626    1.0479 </r>
       <r>    4.6083   -0.0081 </r>
       <r>    4.7049   -0.0431 </r>
       <r>    4.7086   -0.0415 </r>
       <r>    8.4881    0.0000 </r>
       <r>    9.1519    0.0000 </r>
      </set>
      <set comment="kpoint 16">
       <r>   -2.0746    1.0000 </r>
       <r>   -0.1411    1.0000 </r>
       <r>    0.3896    1.0000 </r>
       <r>    0.4172    1.0000 </r>
       <r>    0.4682    1.0000 </r>
       <r>    0.6729    1.0000 </r>
       <r>    0.7043    1.0000 </r>
       <r>    1.4382    1.0000 </r>
       <r>    2.4108    1.0000 </r>
       <r>    2.4499    1.0000 </r>
       <r>    2.5161    1.0000 </r>
       <r>    2.5846    1.0000 </r>
       <r>    2.9065    1.0000 </r>
       <r>    3.0145    1.0000 </r>
       <r>    3.6359    1.0000 </r>
       <r>    3.6440    1.0000 </r>
       <r>    3.6858    1.0000 </r>
       <r>    3.7998    1.0000 </r>
       <r>    4.0611    0.9952 </r>
       <r>    4.3525    0.9962 </r>
       <r>    4.7044   -0.0433 </r>
       <r>    4.7078   -0.0418 </r>
       <r>    8.9011    0.0000 </r>
       <r>    9.6245    0.0000 </r>
      </set>
      <set comment="kpoint 17">
       <r>   -1.7490    1.0000 </r>
       <r>   -0.2458    1.0000 </r>
       <r>    0.5524    1.0000 </r>
       <r>    0.5791    1.0000 </r>
       <r>    0.5883    1.0000 </r>
       <r>    0.8693    1.0000 </r>
       <r>    0.8887    1.0000 </r>
       <r>    1.2978    1.0000 </r>
       <r>    2.1734    1.0000 </r>
       <r>    2.2404    1.0000 </r>
       <r>    2.4822    1.0000 </r>
       <r>    2.6051    1.0000 </r>
       <r>    2.7114    1.0000 </r>
       <r>    2.8644    1.0000 </r>
       <r>    3.4643    1.0000 </r>
       <r>    3.4995    1.0000 </r>
       <r>    3.5875    1.0000 </r>
       <r>    3.7171    1.0000 </r>
       <r>    3.8031    1.0000 </r>
       <r>    4.2103    1.0251 </r>
       <r>    4.7045   -0.0432 </r>
       <r>    4.7072   -0.0421 </r>
       <r>    9.2336    0.0000 </r>
       <r>    9.8379    0.0000 </r>
      </set>
      <set comment="kpoint 18">
       <r>   -1.4012    1.0000 </r>
       <r>   -0.4403    1.0000 </r>
       <r>    0.6962    1.0000 </r>
       <r>    0.7136    1.0000 </r>
       <r>    0.7196    1.0000 </r>
       <r>    1.0877    1.0000 </r>
       <r>    1.0908    1.0000 </r>
       <r>    1.1519    1.0000 </r>
       <r>    1.8567    1.0000 </r>
       <r>    1.9175    1.0000 </r>
       <r>    2.4712    1.0000 </r>
       <r>    2.5137    1.0000 </r>
       <r>    2.7773    1.0000 </r>
       <r>    2.9427    1.0000 </r>
       <r>    3.3205    1.0000 </r>
       <r>    3.3450    1.0000 </r>
       <r>    3.3736    1.0000 </r>
       <r>    3.5494    1.0000 </r>
       <r>    3.8052    1.0000 </r>
       <r>    4.0995    0.9957 </r>
       <r>    4.7048   -0.0431 </r>
       <r>    4.7066   -0.0424 </r>
       <r>    9.4652    0.0000 </r>
       <r>    9.8014    0.0000 </r>
      </set>
      <set comment="kpoint 19">
       <r>   -1.0487    1.0000 </r>
       <r>   -0.7175    1.0000 </r>
       <r>    0.7852    1.0000 </r>
       <r>    0.7907    1.0000 </r>
       <r>    0.8593    1.0000 </r>
       <r>    1.0045    1.0000 </r>
       <r>    1.3078    1.0000 </r>
       <r>    1.3354    1.0000 </r>
       <r>    1.5727    1.0000 </r>
       <r>    1.6200    1.0000 </r>
       <r>    2.4287    1.0000 </r>
       <r>    2.4297    1.0000 </r>
       <r>    2.9646    1.0000 </r>
       <r>    3.1082    1.0000 </r>
       <r>    3.1645    1.0000 </r>
       <r>    3.2427    1.0000 </r>
       <r>    3.2516    1.0000 </r>
       <r>    3.3156    1.0000 </r>
       <r>    3.8990    0.9995 </r>
       <r>    3.9971    0.9972 </r>
       <r>    4.7053   -0.0429 </r>
       <r>    4.7059   -0.0426 </r>
       <r>    9.6138    0.0000 </r>
       <r>    9.7177    0.0000 </r>
      </set>
      <set comment="kpoint 20">
       <r>   -2.8758    1.0000 </r>
       <r>   -0.1115    1.0000 </r>
       <r>   -0.1115    1.0000 </r>
       <r>   -0.0754    1.0000 </r>
       <r>    0.1937    1.0000 </r>
       <r>    0.1937    1.0000 </r>
       <r>    0.2413    1.0000 </r>
       <r>    1.8313    1.0000 </r>
       <r>    2.0615    1.0000 </r>
       <r>    2.0900    1.0000 </r>
       <r>    3.2773    1.0000 </r>
       <r>    3.4108    1.0000 </r>
       <r>    3.8350    0.9999 </r>
       <r>    3.8590    0.9998 </r>
       <r>    3.8590    0.9998 </r>
       <r>    4.2030    1.0217 </r>
       <r>    4.3222    1.0371 </r>
       <r>    4.3222    1.0371 </r>
       <r>    4.6193   -0.0240 </r>
       <r>    4.6193   -0.0240 </r>
       <r>    4.6685   -0.0516 </r>
       <r>    6.5439    0.0000 </r>
       <r>    6.5439    0.0000 </r>
       <r>    8.0007    0.0000 </r>
      </set>
      <set comment="kpoint 21">
       <r>   -2.7216    1.0000 </r>
       <r>   -0.0751    1.0000 </r>
       <r>   -0.0051    1.0000 </r>
       <r>    0.0047    1.0000 </r>
       <r>    0.2496    1.0000 </r>
       <r>    0.2791    1.0000 </r>
       <r>    0.3424    1.0000 </r>
       <r>    1.7701    1.0000 </r>
       <r>    2.1187    1.0000 </r>
       <r>    2.1453    1.0000 </r>
       <r>    3.2156    1.0000 </r>
       <r>    3.4427    1.0000 </r>
       <r>    3.4716    1.0000 </r>
       <r>    3.5483    1.0000 </r>
       <r>    3.6257    1.0000 </r>
       <r>    4.0927    0.9954 </r>
       <r>    4.2123    1.0260 </r>
       <r>    4.2608    1.0473 </r>
       <r>    4.4982    0.3889 </r>
       <r>    4.6139   -0.0168 </r>
       <r>    4.6362   -0.0407 </r>
       <r>    5.9627    0.0000 </r>
       <r>    6.9811    0.0000 </r>
       <r>    8.4208    0.0000 </r>
      </set>
      <set comment="kpoint 22">
       <r>   -2.5193    1.0000 </r>
       <r>   -0.0422    1.0000 </r>
       <r>    0.1099    1.0000 </r>
       <r>    0.1302    1.0000 </r>
       <r>    0.3227    1.0000 </r>
       <r>    0.3927    1.0000 </r>
       <r>    0.4712    1.0000 </r>
       <r>    1.6818    1.0000 </r>
       <r>    2.2051    1.0000 </r>
       <r>    2.2155    1.0000 </r>
       <r>    3.0864    1.0000 </r>
       <r>    3.1285    1.0000 </r>
       <r>    3.2217    1.0000 </r>
       <r>    3.3436    1.0000 </r>
       <r>    3.4985    1.0000 </r>
       <r>    3.9525    0.9986 </r>
       <r>    4.0698    0.9951 </r>
       <r>    4.1443    1.0015 </r>
       <r>    4.3663    0.9666 </r>
       <r>    4.6097   -0.0103 </r>
       <r>    4.6174   -0.0215 </r>
       <r>    5.4313    0.0000 </r>
       <r>    7.4210    0.0000 </r>
       <r>    8.8911    0.0000 </r>
      </set>
      <set comment="kpoint 23">
       <r>   -2.2719    1.0000 </r>
       <r>   -0.0295    1.0000 </r>
       <r>    0.2385    1.0000 </r>
       <r>    0.2878    1.0000 </r>
       <r>    0.4119    1.0000 </r>
       <r>    0.5337    1.0000 </r>
       <r>    0.6216    1.0000 </r>
       <r>    1.5730    1.0000 </r>
       <r>    2.2930    1.0000 </r>
       <r>    2.3173    1.0000 </r>
       <r>    2.7150    1.0000 </r>
       <r>    2.8819    1.0000 </r>
       <r>    3.0326    1.0000 </r>
       <r>    3.0346    1.0000 </r>
       <r>    3.5708    1.0000 </r>
       <r>    3.7884    1.0000 </r>
       <r>    3.9011    0.9995 </r>
       <r>    3.9772    0.9979 </r>
       <r>    4.2240    1.0316 </r>
       <r>    4.6064   -0.0050 </r>
       <r>    4.6068   -0.0056 </r>
       <r>    4.9884    0.0017 </r>
       <r>    7.8432    0.0000 </r>
       <r>    9.3678    0.0000 </r>
      </set>
      <set comment="kpoint 24">
       <r>   -1.9842    1.0000 </r>
       <r>   -0.0619    1.0000 </r>
       <r>    0.3877    1.0000 </r>
       <r>    0.4581    1.0000 </r>
       <r>    0.5156    1.0000 </r>
       <r>    0.7008    1.0000 </r>
       <r>    0.7841    1.0000 </r>
       <r>    1.4492    1.0000 </r>
       <r>    2.3618    1.0000 </r>
       <r>    2.3637    1.0000 </r>
       <r>    2.4510    1.0000 </r>
       <r>    2.5444    1.0000 </r>
       <r>    2.7308    1.0000 </r>
       <r>    2.9605    1.0000 </r>
       <r>    3.6133    1.0000 </r>
       <r>    3.6563    1.0000 </r>
       <r>    3.7176    1.0000 </r>
       <r>    3.7801    1.0000 </r>
       <r>    4.0501    0.9954 </r>
       <r>    4.6011    0.0047 </r>
       <r>    4.6038   -0.0004 </r>
       <r>    4.6519   -0.0489 </r>
       <r>    8.2305    0.0000 </r>
       <r>    9.6689    0.0000 </r>
      </set>
      <set comment="kpoint 25">
       <r>   -1.6633    1.0000 </r>
       <r>   -0.1674    1.0000 </r>
       <r>    0.5511    1.0000 </r>
       <r>    0.6261    1.0000 </r>
       <r>    0.6320    1.0000 </r>
       <r>    0.8921    1.0000 </r>
       <r>    0.9474    1.0000 </r>
       <r>    1.3152    1.0000 </r>
       <r>    2.0374    1.0000 </r>
       <r>    2.2185    1.0000 </r>
       <r>    2.3887    1.0000 </r>
       <r>    2.4873    1.0000 </r>
       <r>    2.6042    1.0000 </r>
       <r>    2.9495    1.0000 </r>
       <r>    3.4473    1.0000 </r>
       <r>    3.5361    1.0000 </r>
       <r>    3.5707    1.0000 </r>
       <r>    3.7530    1.0000 </r>
       <r>    3.8361    0.9999 </r>
       <r>    4.4147    0.8060 </r>
       <r>    4.5983    0.0101 </r>
       <r>    4.6017    0.0035 </r>
       <r>    8.5686    0.0000 </r>
       <r>    9.5952    0.0000 </r>
      </set>
      <set comment="kpoint 26">
       <r>   -1.3201    1.0000 </r>
       <r>   -0.3637    1.0000 </r>
       <r>    0.7117    1.0000 </r>
       <r>    0.7589    1.0000 </r>
       <r>    0.7678    1.0000 </r>
       <r>    1.1032    1.0000 </r>
       <r>    1.1057    1.0000 </r>
       <r>    1.1754    1.0000 </r>
       <r>    1.7427    1.0000 </r>
       <r>    1.9102    1.0000 </r>
       <r>    2.3386    1.0000 </r>
       <r>    2.3583    1.0000 </r>
       <r>    2.7741    1.0000 </r>
       <r>    3.0306    1.0000 </r>
       <r>    3.3180    1.0000 </r>
       <r>    3.3600    1.0000 </r>
       <r>    3.3801    1.0000 </r>
       <r>    3.6042    1.0000 </r>
       <r>    3.8594    0.9998 </r>
       <r>    4.2418    1.0399 </r>
       <r>    4.5973    0.0120 </r>
       <r>    4.5999    0.0070 </r>
       <r>    8.8499    0.0000 </r>
       <r>    9.4393    0.0000 </r>
      </set>
      <set comment="kpoint 27">
       <r>   -0.9712    1.0000 </r>
       <r>   -0.6416    1.0000 </r>
       <r>    0.8279    1.0000 </r>
       <r>    0.8473    1.0000 </r>
       <r>    0.8937    1.0000 </r>
       <r>    1.0337    1.0000 </r>
       <r>    1.2625    1.0000 </r>
       <r>    1.3291    1.0000 </r>
       <r>    1.5018    1.0000 </r>
       <r>    1.6266    1.0000 </r>
       <r>    2.2878    1.0000 </r>
       <r>    2.3081    1.0000 </r>
       <r>    2.9583    1.0000 </r>
       <r>    3.1545    1.0000 </r>
       <r>    3.1837    1.0000 </r>
       <r>    3.2554    1.0000 </r>
       <r>    3.2781    1.0000 </r>
       <r>    3.3808    1.0000 </r>
       <r>    3.9748    0.9980 </r>
       <r>    4.1005    0.9958 </r>
       <r>    4.5975    0.0116 </r>
       <r>    4.5984    0.0098 </r>
       <r>    9.0785    0.0000 </r>
       <r>    9.2692    0.0000 </r>
      </set>
      <set comment="kpoint 28">
       <r>   -2.5710    1.0000 </r>
       <r>    0.0337    1.0000 </r>
       <r>    0.0337    1.0000 </r>
       <r>    0.0664    1.0000 </r>
       <r>    0.3327    1.0000 </r>
       <r>    0.3327    1.0000 </r>
       <r>    0.4511    1.0000 </r>
       <r>    1.7308    1.0000 </r>
       <r>    2.1584    1.0000 </r>
       <r>    2.1849    1.0000 </r>
       <r>    3.1828    1.0000 </r>
       <r>    3.2391    1.0000 </r>
       <r>    3.2391    1.0000 </r>
       <r>    3.3364    1.0000 </r>
       <r>    3.4644    1.0000 </r>
       <r>    3.9931    0.9974 </r>
       <r>    4.1726    1.0094 </r>
       <r>    4.1726    1.0094 </r>
       <r>    4.4835    0.4657 </r>
       <r>    4.4835    0.4657 </r>
       <r>    4.5709    0.0792 </r>
       <r>    6.3887    0.0000 </r>
       <r>    6.3887    0.0000 </r>
       <r>    8.8005    0.0000 </r>
      </set>
      <set comment="kpoint 29">
       <r>   -2.3732    1.0000 </r>
       <r>    0.0696    1.0000 </r>
       <r>    0.1524    1.0000 </r>
       <r>    0.1724    1.0000 </r>
       <r>    0.4027    1.0000 </r>
       <r>    0.4431    1.0000 </r>
       <r>    0.5847    1.0000 </r>
       <r>    1.6627    1.0000 </r>
       <r>    2.2302    1.0000 </r>
       <r>    2.2336    1.0000 </r>
       <r>    2.8646    1.0000 </r>
       <r>    2.9730    1.0000 </r>
       <r>    3.0731    1.0000 </r>
       <r>    3.1186    1.0000 </r>
       <r>    3.5222    1.0000 </r>
       <r>    3.8676    0.9998 </r>
       <r>    4.0494    0.9954 </r>
       <r>    4.0817    0.9951 </r>
       <r>    4.3347    1.0240 </r>
       <r>    4.4726    0.5235 </r>
       <r>    4.5234    0.2647 </r>
       <r>    5.8429    0.0000 </r>
       <r>    6.8098    0.0000 </r>
       <r>    9.2254    0.0000 </r>
      </set>
      <set comment="kpoint 30">
       <r>   -2.1315    1.0000 </r>
       <r>    0.0849    1.0000 </r>
       <r>    0.2630    1.0000 </r>
       <r>    0.3346    1.0000 </r>
       <r>    0.4878    1.0000 </r>
       <r>    0.5802    1.0000 </r>
       <r>    0.7343    1.0000 </r>
       <r>    1.5701    1.0000 </r>
       <r>    2.2826    1.0000 </r>
       <r>    2.3323    1.0000 </r>
       <r>    2.5083    1.0000 </r>
       <r>    2.6961    1.0000 </r>
       <r>    2.7818    1.0000 </r>
       <r>    3.0443    1.0000 </r>
       <r>    3.6071    1.0000 </r>
       <r>    3.7208    1.0000 </r>
       <r>    3.8979    0.9995 </r>
       <r>    3.9365    0.9990 </r>
       <r>    4.1770    1.0109 </r>
       <r>    4.4649    0.5637 </r>
       <r>    4.4920    0.4210 </r>
       <r>    5.3733    0.0000 </r>
       <r>    7.2134    0.0000 </r>
       <r>    9.5427    0.0000 </r>
      </set>
      <set comment="kpoint 31">
       <r>   -1.8505    1.0000 </r>
       <r>    0.0538    1.0000 </r>
       <r>    0.3976    1.0000 </r>
       <r>    0.5115    1.0000 </r>
       <r>    0.5866    1.0000 </r>
       <r>    0.7424    1.0000 </r>
       <r>    0.8880    1.0000 </r>
       <r>    1.4598    1.0000 </r>
       <r>    2.1744    1.0000 </r>
       <r>    2.3159    1.0000 </r>
       <r>    2.4424    1.0000 </r>
       <r>    2.4595    1.0000 </r>
       <r>    2.4807    1.0000 </r>
       <r>    2.9903    1.0000 </r>
       <r>    3.5638    1.0000 </r>
       <r>    3.7115    1.0000 </r>
       <r>    3.7287    1.0000 </r>
       <r>    3.7521    1.0000 </r>
       <r>    4.0034    0.9970 </r>
       <r>    4.4594    0.5924 </r>
       <r>    4.4723    0.5247 </r>
       <r>    4.9921    0.0016 </r>
       <r>    7.5896    0.0000 </r>
       <r>    9.4228    0.0000 </r>
      </set>
      <set comment="kpoint 32">
       <r>   -1.5369    1.0000 </r>
       <r>   -0.0535    1.0000 </r>
       <r>    0.5537    1.0000 </r>
       <r>    0.6893    1.0000 </r>
       <r>    0.6971    1.0000 </r>
       <r>    0.9263    1.0000 </r>
       <r>    1.0292    1.0000 </r>
       <r>    1.3374    1.0000 </r>
       <r>    1.8676    1.0000 </r>
       <r>    2.1828    1.0000 </r>
       <r>    2.2526    1.0000 </r>
       <r>    2.3093    1.0000 </r>
       <r>    2.6078    1.0000 </r>
       <r>    2.9929    1.0000 </r>
       <r>    3.4158    1.0000 </r>
       <r>    3.5500    1.0000 </r>
       <r>    3.5570    1.0000 </r>
       <r>    3.8068    1.0000 </r>
       <r>    3.8313    0.9999 </r>
       <r>    4.4554    0.6132 </r>
       <r>    4.4606    0.5861 </r>
       <r>    4.6954   -0.0466 </r>
       <r>    7.9309    0.0000 </r>
       <r>    9.1993    0.0000 </r>
      </set>
      <set comment="kpoint 33">
       <r>   -1.2009    1.0000 </r>
       <r>   -0.2528    1.0000 </r>
       <r>    0.7236    1.0000 </r>
       <r>    0.8171    1.0000 </r>
       <r>    0.8443    1.0000 </r>
       <r>    1.1265    1.0000 </r>
       <r>    1.1393    1.0000 </r>
       <r>    1.2080    1.0000 </r>
       <r>    1.5982    1.0000 </r>
       <r>    1.8970    1.0000 </r>
       <r>    2.1541    1.0000 </r>
       <r>    2.2580    1.0000 </r>
       <r>    2.7734    1.0000 </r>
       <r>    3.0700    1.0000 </r>
       <r>    3.3047    1.0000 </r>
       <r>    3.3446    1.0000 </r>
       <r>    3.4039    1.0000 </r>
       <r>    3.5965    1.0000 </r>
       <r>    3.9646    0.9983 </r>
       <r>    4.4526    0.6274 </r>
       <r>    4.4543    0.6189 </r>
       <r>    4.4641    0.5682 </r>
       <r>    8.2342    0.0000 </r>
       <r>    8.9728    0.0000 </r>
      </set>
      <set comment="kpoint 34">
       <r>   -0.8581    1.0000 </r>
       <r>   -0.5316    1.0000 </r>
       <r>    0.8780    1.0000 </r>
       <r>    0.9297    1.0000 </r>
       <r>    0.9443    1.0000 </r>
       <r>    1.0756    1.0000 </r>
       <r>    1.2175    1.0000 </r>
       <r>    1.2880    1.0000 </r>
       <r>    1.4418    1.0000 </r>
       <r>    1.6321    1.0000 </r>
       <r>    2.1428    1.0000 </r>
       <r>    2.1897    1.0000 </r>
       <r>    2.9530    1.0000 </r>
       <r>    3.1442    1.0000 </r>
       <r>    3.2096    1.0000 </r>
       <r>    3.2597    1.0000 </r>
       <r>    3.2961    1.0000 </r>
       <r>    3.3912    1.0000 </r>
       <r>    4.1114    0.9966 </r>
       <r>    4.2750    1.0508 </r>
       <r>    4.4512    0.6347 </r>
       <r>    4.4515    0.6331 </r>
       <r>    8.5022    0.0000 </r>
       <r>    8.7442    0.0000 </r>
      </set>
      <set comment="kpoint 35">
       <r>   -2.1816    1.0000 </r>
       <r>    0.2124    1.0000 </r>
       <r>    0.2124    1.0000 </r>
       <r>    0.2181    1.0000 </r>
       <r>    0.5089    1.0000 </r>
       <r>    0.5089    1.0000 </r>
       <r>    0.7191    1.0000 </r>
       <r>    1.6201    1.0000 </r>
       <r>    2.2558    1.0000 </r>
       <r>    2.2837    1.0000 </r>
       <r>    2.6191    1.0000 </r>
       <r>    2.6191    1.0000 </r>
       <r>    2.8765    1.0000 </r>
       <r>    3.0782    1.0000 </r>
       <r>    3.5864    1.0000 </r>
       <r>    3.7587    1.0000 </r>
       <r>    3.9832    0.9977 </r>
       <r>    3.9832    0.9977 </r>
       <r>    4.3108    1.0451 </r>
       <r>    4.3108    1.0451 </r>
       <r>    4.4426    0.6777 </r>
       <r>    6.2463    0.0000 </r>
       <r>    6.2463    0.0000 </r>
       <r>    9.4967    0.0000 </r>
      </set>
      <set comment="kpoint 36">
       <r>   -1.9477    1.0000 </r>
       <r>    0.2315    1.0000 </r>
       <r>    0.3082    1.0000 </r>
       <r>    0.3802    1.0000 </r>
       <r>    0.5887    1.0000 </r>
       <r>    0.6409    1.0000 </r>
       <r>    0.8646    1.0000 </r>
       <r>    1.5525    1.0000 </r>
       <r>    2.2760    1.0000 </r>
       <r>    2.2851    1.0000 </r>
       <r>    2.3686    1.0000 </r>
       <r>    2.3748    1.0000 </r>
       <r>    2.6439    1.0000 </r>
       <r>    3.0222    1.0000 </r>
       <r>    3.6309    1.0000 </r>
       <r>    3.6868    1.0000 </r>
       <r>    3.8529    0.9998 </r>
       <r>    3.8652    0.9998 </r>
       <r>    4.1361    0.9999 </r>
       <r>    4.2954    1.0507 </r>
       <r>    4.3813    0.9264 </r>
       <r>    5.7534    0.0000 </r>
       <r>    6.6341    0.0000 </r>
       <r>    9.3242    0.0000 </r>
      </set>
      <set comment="kpoint 37">
       <r>   -1.6758    1.0000 </r>
       <r>    0.2015    1.0000 </r>
       <r>    0.4233    1.0000 </r>
       <r>    0.5647    1.0000 </r>
       <r>    0.6807    1.0000 </r>
       <r>    0.7971    1.0000 </r>
       <r>    1.0076    1.0000 </r>
       <r>    1.4637    1.0000 </r>
       <r>    1.9737    1.0000 </r>
       <r>    2.1653    1.0000 </r>
       <r>    2.2793    1.0000 </r>
       <r>    2.3907    1.0000 </r>
       <r>    2.4826    1.0000 </r>
       <r>    2.9804    1.0000 </r>
       <r>    3.4935    1.0000 </r>
       <r>    3.7017    1.0000 </r>
       <r>    3.7028    1.0000 </r>
       <r>    3.8134    0.9999 </r>
       <r>    3.9517    0.9986 </r>
       <r>    4.2856    1.0516 </r>
       <r>    4.3381    1.0195 </r>
       <r>    5.3402    0.0000 </r>
       <r>    7.0000    0.0000 </r>
       <r>    9.0347    0.0000 </r>
      </set>
      <set comment="kpoint 38">
       <r>   -1.3724    1.0000 </r>
       <r>    0.0909    1.0000 </r>
       <r>    0.5630    1.0000 </r>
       <r>    0.7544    1.0000 </r>
       <r>    0.7828    1.0000 </r>
       <r>    0.9728    1.0000 </r>
       <r>    1.1285    1.0000 </r>
       <r>    1.3598    1.0000 </r>
       <r>    1.6889    1.0000 </r>
       <r>    2.0278    1.0000 </r>
       <r>    2.1308    1.0000 </r>
       <r>    2.2473    1.0000 </r>
       <r>    2.6207    1.0000 </r>
       <r>    2.9861    1.0000 </r>
       <r>    3.3649    1.0000 </r>
       <r>    3.5150    1.0000 </r>
       <r>    3.5438    1.0000 </r>
       <r>    3.7557    1.0000 </r>
       <r>    3.9596    0.9984 </r>
       <r>    4.2796    1.0514 </r>
       <r>    4.3094    1.0458 </r>
       <r>    5.0037    0.0013 </r>
       <r>    7.3397    0.0000 </r>
       <r>    8.7499    0.0000 </r>
      </set>
      <set comment="kpoint 39">
       <r>   -1.0470    1.0000 </r>
       <r>   -0.1131    1.0000 </r>
       <r>    0.7258    1.0000 </r>
       <r>    0.8931    1.0000 </r>
       <r>    0.9310    1.0000 </r>
       <r>    1.1520    1.0000 </r>
       <r>    1.2020    1.0000 </r>
       <r>    1.2463    1.0000 </r>
       <r>    1.4462    1.0000 </r>
       <r>    1.8754    1.0000 </r>
       <r>    1.9811    1.0000 </r>
       <r>    2.1769    1.0000 </r>
       <r>    2.7772    1.0000 </r>
       <r>    3.0565    1.0000 </r>
       <r>    3.2722    1.0000 </r>
       <r>    3.3200    1.0000 </r>
       <r>    3.3983    1.0000 </r>
       <r>    3.5530    1.0000 </r>
       <r>    4.1222    0.9977 </r>
       <r>    4.2767    1.0510 </r>
       <r>    4.2916    1.0513 </r>
       <r>    4.7299   -0.0316 </r>
       <r>    7.6521    0.0000 </r>
       <r>    8.4779    0.0000 </r>
      </set>
      <set comment="kpoint 40">
       <r>   -0.7133    1.0000 </r>
       <r>   -0.3923    1.0000 </r>
       <r>    0.9053    1.0000 </r>
       <r>    1.0092    1.0000 </r>
       <r>    1.0337    1.0000 </r>
       <r>    1.1280    1.0000 </r>
       <r>    1.1884    1.0000 </r>
       <r>    1.2068    1.0000 </r>
       <r>    1.4269    1.0000 </r>
       <r>    1.6345    1.0000 </r>
       <r>    2.0118    1.0000 </r>
       <r>    2.0882    1.0000 </r>
       <r>    2.9476    1.0000 </r>
       <r>    3.1291    1.0000 </r>
       <r>    3.1857    1.0000 </r>
       <r>    3.2433    1.0000 </r>
       <r>    3.2896    1.0000 </r>
       <r>    3.3572    1.0000 </r>
       <r>    4.2771    1.0511 </r>
       <r>    4.2816    1.0515 </r>
       <r>    4.3013    1.0492 </r>
       <r>    4.5008    0.3753 </r>
       <r>    7.9402    0.0000 </r>
       <r>    8.2118    0.0000 </r>
      </set>
      <set comment="kpoint 41">
       <r>   -1.7235    1.0000 </r>
       <r>    0.3759    1.0000 </r>
       <r>    0.4041    1.0000 </r>
       <r>    0.4041    1.0000 </r>
       <r>    0.7141    1.0000 </r>
       <r>    0.7141    1.0000 </r>
       <r>    1.0022    1.0000 </r>
       <r>    1.5141    1.0000 </r>
       <r>    2.0726    1.0000 </r>
       <r>    2.0726    1.0000 </r>
       <r>    2.2690    1.0000 </r>
       <r>    2.4332    1.0000 </r>
       <r>    2.4717    1.0000 </r>
       <r>    2.9784    1.0000 </r>
       <r>    3.5223    1.0000 </r>
       <r>    3.7594    1.0000 </r>
[...]
       <r>    5.0854    0.0002 </r>
       <r>    5.5059    0.0000 </r>
       <r>    5.5059    0.0000 </r>
       <r>    5.8286    0.0000 </r>
      </set>
      <set comment="kpoint 217">
       <r>   -0.6351    1.0000 </r>
       <r>   -0.4784    1.0000 </r>
       <r>   -0.4784    1.0000 </r>
       <r>   -0.4784    1.0000 </r>
       <r>    1.8485    1.0000 </r>
       <r>    1.8485    1.0000 </r>
       <r>    1.8485    1.0000 </r>
       <r>    1.9746    1.0000 </r>
       <r>    1.9746    1.0000 </r>
       <r>    2.0457    1.0000 </r>
       <r>    2.0457    1.0000 </r>
       <r>    2.0457    1.0000 </r>
       <r>    3.6244    1.0000 </r>
       <r>    3.6244    1.0000 </r>
       <r>    3.6244    1.0000 </r>
       <r>    4.0408    0.9957 </r>
       <r>    4.3605    0.9798 </r>
       <r>    4.3605    0.9798 </r>
       <r>    4.4973    0.3935 </r>
       <r>    4.4973    0.3935 </r>
       <r>    4.4973    0.3935 </r>
       <r>    5.8064    0.0000 </r>
       <r>    5.8064    0.0000 </r>
       <r>    5.8064    0.0000 </r>
      </set>
      <set comment="kpoint 218">
       <r>   -0.6089    1.0000 </r>
       <r>   -0.5566    1.0000 </r>
       <r>   -0.5062    1.0000 </r>
       <r>   -0.5062    1.0000 </r>
       <r>    1.8656    1.0000 </r>
       <r>    1.8656    1.0000 </r>
       <r>    1.9036    1.0000 </r>
       <r>    1.9461    1.0000 </r>
       <r>    1.9737    1.0000 </r>
       <r>    1.9976    1.0000 </r>
       <r>    2.0156    1.0000 </r>
       <r>    2.0156    1.0000 </r>
       <r>    3.7946    1.0000 </r>
       <r>    3.7946    1.0000 </r>
       <r>    3.8489    0.9998 </r>
       <r>    4.0442    0.9956 </r>
       <r>    4.4410    0.6858 </r>
       <r>    4.4784    0.4926 </r>
       <r>    4.4784    0.4926 </r>
       <r>    4.4872    0.4463 </r>
       <r>    4.7004   -0.0448 </r>
       <r>    5.2437    0.0000 </r>
       <r>    5.7940    0.0000 </r>
       <r>    5.7940    0.0000 </r>
      </set>
      <set comment="kpoint 219">
       <r>   -0.6024    1.0000 </r>
       <r>   -0.5681    1.0000 </r>
       <r>   -0.5681    1.0000 </r>
       <r>   -0.5513    1.0000 </r>
       <r>    1.8964    1.0000 </r>
       <r>    1.9092    1.0000 </r>
       <r>    1.9092    1.0000 </r>
       <r>    1.9396    1.0000 </r>
       <r>    1.9561    1.0000 </r>
       <r>    1.9734    1.0000 </r>
       <r>    1.9734    1.0000 </r>
       <r>    1.9795    1.0000 </r>
       <r>    4.0063    0.9969 </r>
       <r>    4.0430    0.9956 </r>
       <r>    4.0430    0.9956 </r>
       <r>    4.2105    1.0252 </r>
       <r>    4.4220    0.7743 </r>
       <r>    4.4682    0.5465 </r>
       <r>    4.4682    0.5465 </r>
       <r>    4.4685    0.5446 </r>
       <r>    4.9172    0.0042 </r>
       <r>    5.3417    0.0000 </r>
       <r>    5.3417    0.0000 </r>
       <r>    5.5497    0.0000 </r>
      </set>
      <set comment="kpoint 220">
       <r>   -0.6144    1.0000 </r>
       <r>   -0.5973    1.0000 </r>
       <r>   -0.5973    1.0000 </r>
       <r>   -0.5973    1.0000 </r>
       <r>    1.9244    1.0000 </r>
       <r>    1.9244    1.0000 </r>
       <r>    1.9244    1.0000 </r>
       <r>    1.9390    1.0000 </r>
       <r>    1.9390    1.0000 </r>
       <r>    1.9469    1.0000 </r>
       <r>    1.9469    1.0000 </r>
       <r>    1.9469    1.0000 </r>
       <r>    4.2999    1.0496 </r>
       <r>    4.2999    1.0496 </r>
       <r>    4.2999    1.0496 </r>
       <r>    4.4742    0.5150 </r>
       <r>    4.4742    0.5150 </r>
       <r>    4.4899    0.4321 </r>
       <r>    4.4899    0.4321 </r>
       <r>    4.4899    0.4321 </r>
       <r>    4.8690    0.0048 </r>
       <r>    5.1942    0.0000 </r>
       <r>    5.1942    0.0000 </r>
       <r>    5.1942    0.0000 </r>
      </set>
     </set>
    </set>
   </array>
  </eigenvalues>
  <separator name="orbital magnetization" >
   <v name="MAGDIPOLOUT">      0.00000000      0.00000000      0.00000000</v>
  </separator>
  <dos>
   <i name="efermi">      4.47699433 </i>
   <total>
    <array>
     <dimension dim="1">gridpoints</dimension>
     <dimension dim="2">spin</dimension>
     <field>energy</field>
     <field>total</field>
     <field>integrated</field>
     <set>
      <set comment="spin 1">
       <r>    -5.1912     0.0000     0.0000 </r>
       <r>    -5.1340     0.0000     0.0000 </r>
       <r>    -5.0767     0.0000     0.0000 </r>
       <r>    -5.0195     0.0000     0.0000 </r>
       <r>    -4.9622     0.0000     0.0000 </r>
       <r>    -4.9050     0.0000     0.0000 </r>
       <r>    -4.8477     0.0000     0.0000 </r>
       <r>    -4.7905     0.0000     0.0000 </r>
       <r>    -4.7332     0.0000     0.0000 </r>
       <r>    -4.6760     0.0000     0.0000 </r>
       <r>    -4.6187     0.0000     0.0000 </r>
       <r>    -4.5615     0.0000     0.0000 </r>
       <r>    -4.5042     0.0000     0.0000 </r>
       <r>    -4.4470     0.0000     0.0000 </r>
       <r>    -4.3897     0.0000     0.0000 </r>
       <r>    -4.3325     0.0000     0.0000 </r>
       <r>    -4.2752     0.0000     0.0000 </r>
       <r>    -4.2180     0.0000     0.0000 </r>
       <r>    -4.1607     0.0000     0.0000 </r>
       <r>    -4.1035     0.0000     0.0000 </r>
       <r>    -4.0462     0.0000     0.0000 </r>
       <r>    -3.9890     0.0000     0.0000 </r>
       <r>    -3.9317     0.0000     0.0000 </r>
       <r>    -3.8745     0.0000     0.0000 </r>
       <r>    -3.8172     0.0000     0.0000 </r>
       <r>    -3.7600     0.0000     0.0000 </r>
       <r>    -3.7027     0.0001     0.0000 </r>
       <r>    -3.6455     0.0003     0.0000 </r>
       <r>    -3.5882     0.0005     0.0001 </r>
       <r>    -3.5310     0.0005     0.0001 </r>
       <r>    -3.4737    -0.0004     0.0001 </r>
       <r>    -3.4165    -0.0027    -0.0001 </r>
       <r>    -3.3592    -0.0050    -0.0004 </r>
       <r>    -3.3020    -0.0033    -0.0006 </r>
       <r>    -3.2447     0.0086    -0.0001 </r>
       <r>    -3.1875     0.0342     0.0019 </r>
       <r>    -3.1302     0.0709     0.0059 </r>
       <r>    -3.0730     0.1109     0.0123 </r>
       <r>    -3.0157     0.1467     0.0207 </r>
       <r>    -2.9585     0.1757     0.0308 </r>
       <r>    -2.9013     0.1992     0.0422 </r>
       <r>    -2.8440     0.2189     0.0547 </r>
       <r>    -2.7868     0.2364     0.0682 </r>
       <r>    -2.7295     0.2547     0.0828 </r>
       <r>    -2.6723     0.2751     0.0985 </r>
       <r>    -2.6150     0.2942     0.1154 </r>
       <r>    -2.5578     0.3080     0.1330 </r>
       <r>    -2.5005     0.3199     0.1513 </r>
       <r>    -2.4433     0.3383     0.1707 </r>
       <r>    -2.3860     0.3635     0.1915 </r>
       <r>    -2.3288     0.3836     0.2135 </r>
       <r>    -2.2715     0.3914     0.2359 </r>
       <r>    -2.2143     0.3967     0.2586 </r>
       <r>    -2.1570     0.4149     0.2823 </r>
       <r>    -2.0998     0.4456     0.3079 </r>
       <r>    -2.0425     0.4735     0.3350 </r>
       <r>    -1.9853     0.4868     0.3628 </r>
       <r>    -1.9280     0.4889     0.3908 </r>
       <r>    -1.8708     0.4938     0.4191 </r>
       <r>    -1.8135     0.5160     0.4486 </r>
       <r>    -1.7563     0.5567     0.4805 </r>
       <r>    -1.6990     0.5969     0.5147 </r>
       <r>    -1.6418     0.6124     0.5497 </r>
       <r>    -1.5845     0.6048     0.5844 </r>
       <r>    -1.5273     0.6060     0.6190 </r>
       <r>    -1.4700     0.6420     0.6558 </r>
       <r>    -1.4128     0.7002     0.6959 </r>
       <r>    -1.3555     0.7445     0.7385 </r>
       <r>    -1.2983     0.7610     0.7821 </r>
       <r>    -1.2410     0.7699     0.8262 </r>
       <r>    -1.1838     0.7941     0.8716 </r>
       <r>    -1.1265     0.8365     0.9195 </r>
       <r>    -1.0693     0.8907     0.9705 </r>
       <r>    -1.0120     0.9536     1.0251 </r>
       <r>    -0.9548     1.0147     1.0832 </r>
       <r>    -0.8975     1.0573     1.1437 </r>
       <r>    -0.8403     1.0939     1.2063 </r>
       <r>    -0.7830     1.1842     1.2741 </r>
       <r>    -0.7258     1.3903     1.3537 </r>
       <r>    -0.6685     1.7104     1.4516 </r>
       <r>    -0.6113     2.0717     1.5702 </r>
       <r>    -0.5540     2.3844     1.7068 </r>
       <r>    -0.4968     2.5946     1.8553 </r>
       <r>    -0.4395     2.7011     2.0099 </r>
       <r>    -0.3823     2.7563     2.1677 </r>
       <r>    -0.3250     2.8618     2.3316 </r>
       <r>    -0.2678     3.1244     2.5104 </r>
       <r>    -0.2105     3.5679     2.7147 </r>
       <r>    -0.1533     4.0937     2.9491 </r>
       <r>    -0.0960     4.5680     3.2106 </r>
       <r>    -0.0388     4.9553     3.4943 </r>
       <r>     0.0185     5.3376     3.7998 </r>
       <r>     0.0757     5.8034     4.1321 </r>
       <r>     0.1329     6.3433     4.4952 </r>
       <r>     0.1902     6.8530     4.8875 </r>
       <r>     0.2474     7.2144     5.3006 </r>
       <r>     0.3047     7.3723     5.7226 </r>
       <r>     0.3619     7.3513     6.1435 </r>
       <r>     0.4192     7.2207     6.5568 </r>
       <r>     0.4764     7.0515     6.9605 </r>
       <r>     0.5337     6.8901     7.3550 </r>
       <r>     0.5909     6.7499     7.7414 </r>
       <r>     0.6482     6.6181     8.1203 </r>
       <r>     0.7054     6.4631     8.4903 </r>
       <r>     0.7627     6.2398     8.8475 </r>
       <r>     0.8199     5.9110     9.1859 </r>
       <r>     0.8772     5.4975     9.5007 </r>
       <r>     0.9344     5.1292     9.7943 </r>
       <r>     0.9917     5.0204    10.0817 </r>
       <r>     1.0489     5.3185    10.3862 </r>
       <r>     1.1062     5.9402    10.7263 </r>
       <r>     1.1634     6.6179    11.1051 </r>
       <r>     1.2207     7.1398    11.5139 </r>
       <r>     1.2779     7.4968    11.9431 </r>
       <r>     1.3352     7.7844    12.3887 </r>
       <r>     1.3924     8.0459    12.8493 </r>
       <r>     1.4497     8.2606    13.3222 </r>
       <r>     1.5069     8.4245    13.8045 </r>
       <r>     1.5642     8.5631    14.2948 </r>
       <r>     1.6214     8.6748    14.7914 </r>
       <r>     1.6787     8.7368    15.2916 </r>
       <r>     1.7359     8.7904    15.7948 </r>
       <r>     1.7932     8.9477    16.3070 </r>
       <r>     1.8504     9.2627    16.8373 </r>
       <r>     1.9077     9.6599    17.3903 </r>
       <r>     1.9649    10.0684    17.9668 </r>
       <r>     2.0222    10.5940    18.5733 </r>
       <r>     2.0794    11.4520    19.2289 </r>
       <r>     2.1367    12.6490    19.9530 </r>
       <r>     2.1939    13.7431    20.7398 </r>
       <r>     2.2512    14.0294    21.5430 </r>
       <r>     2.3084    13.1018    22.2930 </r>
       <r>     2.3657    11.2675    22.9381 </r>
       <r>     2.4229     9.3442    23.4730 </r>
       <r>     2.4802     8.0155    23.9319 </r>
       <r>     2.5374     7.3931    24.3552 </r>
       <r>     2.5947     7.1401    24.7639 </r>
       <r>     2.6519     6.9041    25.1592 </r>
       <r>     2.7092     6.6037    25.5372 </r>
       <r>     2.7664     6.3864    25.9028 </r>
       <r>     2.8237     6.4174    26.2702 </r>
       <r>     2.8809     6.7253    26.6552 </r>
       <r>     2.9382     7.1909    27.0669 </r>
       <r>     2.9954     7.6510    27.5049 </r>
       <r>     3.0527     8.0383    27.9651 </r>
       <r>     3.1099     8.4229    28.4473 </r>
       <r>     3.1672     8.8787    28.9556 </r>
       <r>     3.2244     9.3066    29.4884 </r>
       <r>     3.2816     9.4550    30.0297 </r>
       <r>     3.3389     9.1601    30.5541 </r>
       <r>     3.3961     8.5424    31.0432 </r>
       <r>     3.4534     7.9177    31.4964 </r>
       <r>     3.5106     7.5159    31.9267 </r>
       <r>     3.5679     7.3277    32.3462 </r>
       <r>     3.6251     7.2196    32.7595 </r>
       <r>     3.6824     7.1141    33.1668 </r>
       <r>     3.7396     7.0122    33.5682 </r>
       <r>     3.7969     6.9131    33.9640 </r>
       <r>     3.8541     6.8128    34.3540 </r>
       <r>     3.9114     6.7690    34.7416 </r>
       <r>     3.9686     6.8669    35.1347 </r>
       <r>     4.0259     7.0935    35.5408 </r>
       <r>     4.0831     7.3386    35.9609 </r>
       <r>     4.1404     7.5872    36.3953 </r>
       <r>     4.1976     8.0493    36.8561 </r>
       <r>     4.2549     8.9914    37.3708 </r>
       <r>     4.3121    10.4073    37.9666 </r>
       <r>     4.3694    11.8652    38.6459 </r>
       <r>     4.4266    12.6932    39.3726 </r>
       <r>     4.4839    12.3941    40.0821 </r>
       <r>     4.5411    11.0052    40.7122 </r>
       <r>     4.5984     9.0623    41.2310 </r>
       <r>     4.6556     7.1343    41.6394 </r>
       <r>     4.7129     5.4101    41.9492 </r>
       <r>     4.7701     3.8093    42.1672 </r>
       <r>     4.8274     2.3963    42.3044 </r>
       <r>     4.8846     1.4707    42.3886 </r>
       <r>     4.9419     1.2013    42.4574 </r>
       <r>     4.9991     1.3446    42.5344 </r>
       <r>     5.0564     1.4628    42.6181 </r>
       <r>     5.1136     1.3670    42.6964 </r>
       <r>     5.1709     1.2290    42.7667 </r>
       <r>     5.2281     1.2663    42.8392 </r>
       <r>     5.2854     1.4388    42.9216 </r>
       <r>     5.3426     1.5260    43.0089 </r>
       <r>     5.3999     1.4312    43.0909 </r>
       <r>     5.4571     1.2896    43.1647 </r>
       <r>     5.5144     1.2631    43.2370 </r>
       <r>     5.5716     1.3288    43.3131 </r>
       <r>     5.6289     1.3474    43.3902 </r>
       <r>     5.6861     1.2865    43.4639 </r>
       <r>     5.7434     1.2667    43.5364 </r>
       <r>     5.8006     1.3701    43.6148 </r>
       <r>     5.8579     1.4971    43.7005 </r>
       <r>     5.9151     1.4821    43.7854 </r>
       <r>     5.9724     1.3112    43.8605 </r>
       <r>     6.0296     1.1532    43.9265 </r>
       <r>     6.0869     1.1656    43.9932 </r>
       <r>     6.1441     1.3165    44.0686 </r>
       <r>     6.2014     1.4308    44.1505 </r>
       <r>     6.2586     1.3947    44.2303 </r>
       <r>     6.3158     1.2720    44.3031 </r>
       <r>     6.3731     1.2094    44.3724 </r>
       <r>     6.4303     1.2651    44.4448 </r>
       <r>     6.4876     1.3649    44.5229 </r>
       <r>     6.5448     1.4073    44.6035 </r>
       <r>     6.6021     1.3688    44.6819 </r>
       <r>     6.6593     1.2952    44.7560 </r>
       <r>     6.7166     1.2295    44.8264 </r>
       <r>     6.7738     1.1850    44.8943 </r>
       <r>     6.8311     1.1764    44.9616 </r>
       <r>     6.8883     1.2274    45.0319 </r>
       <r>     6.9456     1.3314    45.1081 </r>
       <r>     7.0028     1.4275    45.1898 </r>
       <r>     7.0601     1.4413    45.2723 </r>
       <r>     7.1173     1.3547    45.3499 </r>
       <r>     7.1746     1.2290    45.4202 </r>
       <r>     7.2318     1.1515    45.4862 </r>
       <r>     7.2891     1.1551    45.5523 </r>
       <r>     7.3463     1.1961    45.6208 </r>
       <r>     7.4036     1.2134    45.6902 </r>
       <r>     7.4608     1.2000    45.7589 </r>
       <r>     7.5181     1.2061    45.8280 </r>
       <r>     7.5753     1.2663    45.9005 </r>
       <r>     7.6326     1.3353    45.9769 </r>
       <r>     7.6898     1.3193    46.0525 </r>
       <r>     7.7471     1.1867    46.1204 </r>
       <r>     7.8043     1.0328    46.1795 </r>
       <r>     7.8616     0.9999    46.2368 </r>
       <r>     7.9188     1.1211    46.3009 </r>
       <r>     7.9761     1.2701    46.3737 </r>
       <r>     8.0333     1.2921    46.4476 </r>
       <r>     8.0906     1.1681    46.5145 </r>
       <r>     8.1478     1.0258    46.5732 </r>
       <r>     8.2051     0.9936    46.6301 </r>
       <r>     8.2623     1.0732    46.6915 </r>
       <r>     8.3196     1.1602    46.7580 </r>
       <r>     8.3768     1.1687    46.8249 </r>
       <r>     8.4341     1.1134    46.8886 </r>
       <r>     8.4913     1.0733    46.9501 </r>
       <r>     8.5486     1.0958    47.0128 </r>
       <r>     8.6058     1.1539    47.0789 </r>
       <r>     8.6631     1.1882    47.1469 </r>
       <r>     8.7203     1.1717    47.2140 </r>
       <r>     8.7776     1.1253    47.2784 </r>
       <r>     8.8348     1.0826    47.3404 </r>
       <r>     8.8921     1.0541    47.4007 </r>
       <r>     8.9493     1.0263    47.4595 </r>
       <r>     9.0066     0.9811    47.5156 </r>
       <r>     9.0638     0.9146    47.5680 </r>
       <r>     9.1211     0.8408    47.6161 </r>
       <r>     9.1783     0.7753    47.6605 </r>
       <r>     9.2356     0.7151    47.7014 </r>
       <r>     9.2928     0.6454    47.7384 </r>
       <r>     9.3500     0.5682    47.7709 </r>
       <r>     9.4073     0.5094    47.8001 </r>
       <r>     9.4645     0.4884    47.8280 </r>
       <r>     9.5218     0.4895    47.8561 </r>
       <r>     9.5790     0.4736    47.8832 </r>
       <r>     9.6363     0.4157    47.9070 </r>
       <r>     9.6935     0.3283    47.9258 </r>
       <r>     9.7508     0.2491    47.9400 </r>
       <r>     9.8080     0.2081    47.9520 </r>
       <r>     9.8653     0.2049    47.9637 </r>
       <r>     9.9225     0.2117    47.9758 </r>
       <r>     9.9798     0.1966    47.9871 </r>
       <r>    10.0370     0.1478    47.9955 </r>
       <r>    10.0943     0.0803    48.0001 </r>
       <r>    10.1515     0.0226    48.0014 </r>
       <r>    10.2088    -0.0074    48.0010 </r>
       <r>    10.2660    -0.0124    48.0003 </r>
       <r>    10.3233    -0.0066    47.9999 </r>
       <r>    10.3805    -0.0011    47.9998 </r>
       <r>    10.4378     0.0011    47.9999 </r>
       <r>    10.4950     0.0011    48.0000 </r>
       <r>    10.5523     0.0005    48.0000 </r>
       <r>    10.6095     0.0002    48.0000 </r>
       <r>    10.6668     0.0001    48.0000 </r>
       <r>    10.7240     0.0000    48.0000 </r>
       <r>    10.7813     0.0000    48.0000 </r>
       <r>    10.8385     0.0000    48.0000 </r>
       <r>    10.8958     0.0000    48.0000 </r>
       <r>    10.9530     0.0000    48.0000 </r>
       <r>    11.0103     0.0000    48.0000 </r>
       <r>    11.0675     0.0000    48.0000 </r>
       <r>    11.1248     0.0000    48.0000 </r>
       <r>    11.1820     0.0000    48.0000 </r>
       <r>    11.2393     0.0000    48.0000 </r>
       <r>    11.2965     0.0000    48.0000 </r>
       <r>    11.3538     0.0000    48.0000 </r>
       <r>    11.4110     0.0000    48.0000 </r>
       <r>    11.4683     0.0000    48.0000 </r>
       <r>    11.5255     0.0000    48.0000 </r>
       <r>    11.5828     0.0000    48.0000 </r>
       <r>    11.6400     0.0000    48.0000 </r>
       <r>    11.6973     0.0000    48.0000 </r>
       <r>    11.7545     0.0000    48.0000 </r>
       <r>    11.8118     0.0000    48.0000 </r>
       <r>    11.8690     0.0000    48.0000 </r>
       <r>    11.9263     0.0000    48.0000 </r>
       <r>    11.9835     0.0000    48.0000 </r>
      </set>
     </set>
    </array>
   </total>
  </dos>
 </calculation>
 <structure name="finalpos" >
  <crystal>
   <varray name="basis" >
    <v>       4.26000000       0.00000000       0.00000000 </v>
    <v>       0.00000000       4.26000000       0.00000000 </v>
    <v>       0.00000000       0.00000000       4.26000000 </v>
   </varray>
   <i name="volume">     77.30877600 </i>
   <varray name="rec_basis" >
    <v>       0.23474178       0.00000000       0.00000000 </v>
    <v>       0.00000000       0.23474178       0.00000000 </v>
    <v>       0.00000000       0.00000000       0.23474178 </v>
   </varray>
  </crystal>
  <varray name="positions" >
   <v>       0.00000000       0.00000000       0.00000000 </v>
   <v>       0.00000000       0.50000000       0.50000000 </v>
   <v>       0.50000000       0.00000000       0.50000000 </v>
   <v>       0.50000000       0.50000000       0.00000000 </v>
  </varray>
 </structure>
</modeling>
