This job started on
Tue Jan 22 12:57:12 CET 2019
 running on   16 total cores
 distrk:  each k-point on   16 cores,    1 groups
 distr:  one band on    8 cores,    2 groups
 using from now: INCAR     
 vasp.5.4.4.18Apr17-6-g9f103f2a35 (build Apr 17 2018 18:25:23) complex          
  
 POSCAR found :  1 types and       4 ions

 ----------------------------------------------------------------------------- 
|                                                                             |
|  ADVICE TO THIS USER RUNNING 'VASP/VAMP'   (HEAR YOUR MASTER'S VOICE ...):  |
|                                                                             |
|      You enforced a specific xc-type in the INCAR file,                     |
|      a different type was found on the POTCAR file                          |
|          I HOPE YOU KNOW, WHAT YOU ARE  DOING                               |
|                                                                             |
 ----------------------------------------------------------------------------- 

 LDA part: xc-table for Ceperly-Alder, standard interpolation
 POSCAR found :  1 types and       4 ions
 POSCAR, INCAR and KPOINTS ok, starting setup
 FFT: planning ...
 WAVECAR not read
 entering main loop
       N       E                     dE             d eps       ncg     rms          rms(c)
DAV:   1     0.459660996353E+03    0.45966E+03   -0.17437E+04  5800   0.153E+03
DAV:   2     0.341456532517E+01   -0.45625E+03   -0.44382E+03  5816   0.531E+02
DAV:   3    -0.244549867847E+02   -0.27870E+02   -0.27056E+02  7944   0.125E+02
DAV:   4    -0.252423150154E+02   -0.78733E+00   -0.78057E+00  6192   0.253E+01
DAV:   5    -0.252637573050E+02   -0.21442E-01   -0.21418E-01  6968   0.291E+00    0.760E+00
DAV:   6    -0.238997678571E+02    0.13640E+01   -0.28191E+00  6840   0.192E+01    0.248E+00
DAV:   7    -0.237208295730E+02    0.17894E+00   -0.50371E-01  8336   0.738E+00    0.483E-01
DAV:   8    -0.237018631675E+02    0.18966E-01   -0.21457E-02  6088   0.186E+00    0.999E-02
DAV:   9    -0.237015789454E+02    0.28422E-03   -0.17527E-03  7608   0.458E-01    0.230E-02
DAV:  10    -0.237016014652E+02   -0.22520E-04   -0.48400E-05  6472   0.396E-02    0.352E-03
DAV:  11    -0.237016043246E+02   -0.28594E-05   -0.14951E-06  4376   0.116E-02    0.673E-04
DAV:  12    -0.237016042552E+02    0.69361E-07   -0.24084E-07  3160   0.451E-03
   1 F= -.23701604E+02 E0= -.23700461E+02  d E =-.237016E+02
 curvature:   0.00 expect dE= 0.000E+00 dE for cont linesearch  0.000E+00
 trial: gam= 0.00000 g(F)=  0.926E-62 g(S)=  0.000E+00 ort = 0.000E+00 (trialstep = 0.100E+01)
 search vector abs. value=  0.100E-09
 reached required accuracy - stopping structural energy minimisation
 writing wavefunctions
This job finished on
Tue Jan 22 12:57:32 CET 2019
