<?xml version="1.0" encoding="ISO-8859-1"?>
<modeling>
 <generator>
  <i name="program" type="string">vasp </i>
  <i name="version" type="string">5.4.4.18Apr17-6-g9f103f2a35  </i>
  <i name="subversion" type="string">(build Apr 17 2018 18:25:23) complex            parallel </i>
  <i name="platform" type="string">LinuxIFC </i>
  <i name="date" type="string">2019 01 22 </i>
  <i name="time" type="string">12:57:13 </i>
 </generator>
 <incar>
  <i type="string" name="SYSTEM"> Pt bulk calculation</i>
  <i type="int" name="ISTART">     0</i>
  <i type="string" name="PREC">normal</i>
  <i type="string" name="ALGO"> NORMAL</i>
  <i type="int" name="ICHARG">     2</i>
  <i type="int" name="INIWAV">     1</i>
  <i type="int" name="NELMIN">    10</i>
  <i type="int" name="IBRION">     2</i>
  <i name="EDIFF">      0.00000100</i>
  <i name="EDIFFG">     -0.02000000</i>
  <i type="int" name="NSW">    10</i>
  <i name="ENCUT">    450.00000000</i>
  <i name="POTIM">      0.20000000</i>
  <i type="int" name="ISMEAR">     2</i>
  <i name="SIGMA">      0.20000000</i>
  <v type="int" name="KPOINT_BSE">    -1     0     0     0</v>
  <i type="string" name="GGA"> 91</i>
 </incar>
 <structure name="primitive_cell" >
  <crystal>
   <varray name="basis" >
    <v>       1.92000000       1.92000000       0.00000000 </v>
    <v>       1.92000000       0.00000000      -1.92000000 </v>
    <v>       0.00000000       1.92000000      -1.92000000 </v>
   </varray>
   <i name="volume">     14.15577600 </i>
   <varray name="rec_basis" >
    <v>       0.26041667       0.26041667       0.26041667 </v>
    <v>       0.26041667      -0.26041667      -0.26041667 </v>
    <v>      -0.26041667       0.26041667      -0.26041667 </v>
   </varray>
  </crystal>
  <varray name="positions" >
   <v>       0.00000000       0.00000000       0.00000000 </v>
  </varray>
 </structure>
 <varray name="primitive_index" >
  <v type="int" >        1 </v>
 </varray>
 <kpoints>
  <generation param="Monkhorst-Pack">
   <v type="int" name="divisions">      16       16       16 </v>
   <v name="usershift">      0.00000000       0.00000000       0.00000000 </v>
   <v name="genvec1">      0.06250000       0.00000000       0.00000000 </v>
   <v name="genvec2">      0.00000000       0.06250000       0.00000000 </v>
   <v name="genvec3">      0.00000000       0.00000000       0.06250000 </v>
   <v name="shift">      0.50000000       0.50000000       0.50000000 </v>
  </generation>
  <varray name="kpointlist" >
   <v>       0.03125000       0.03125000       0.03125000 </v>
   <v>       0.09375000       0.03125000       0.03125000 </v>
   <v>       0.15625000       0.03125000       0.03125000 </v>
   <v>       0.21875000       0.03125000       0.03125000 </v>
   <v>       0.28125000       0.03125000       0.03125000 </v>
   <v>       0.34375000       0.03125000       0.03125000 </v>
   <v>       0.40625000       0.03125000       0.03125000 </v>
   <v>       0.46875000       0.03125000       0.03125000 </v>
   <v>       0.09375000       0.09375000       0.03125000 </v>
   <v>       0.15625000       0.09375000       0.03125000 </v>
   <v>       0.21875000       0.09375000       0.03125000 </v>
   <v>       0.28125000       0.09375000       0.03125000 </v>
   <v>       0.34375000       0.09375000       0.03125000 </v>
   <v>       0.40625000       0.09375000       0.03125000 </v>
   <v>       0.46875000       0.09375000       0.03125000 </v>
   <v>       0.15625000       0.15625000       0.03125000 </v>
   <v>       0.21875000       0.15625000       0.03125000 </v>
   <v>       0.28125000       0.15625000       0.03125000 </v>
   <v>       0.34375000       0.15625000       0.03125000 </v>
   <v>       0.40625000       0.15625000       0.03125000 </v>
   <v>       0.46875000       0.15625000       0.03125000 </v>
   <v>       0.21875000       0.21875000       0.03125000 </v>
   <v>       0.28125000       0.21875000       0.03125000 </v>
   <v>       0.34375000       0.21875000       0.03125000 </v>
   <v>       0.40625000       0.21875000       0.03125000 </v>
   <v>       0.46875000       0.21875000       0.03125000 </v>
   <v>       0.28125000       0.28125000       0.03125000 </v>
   <v>       0.34375000       0.28125000       0.03125000 </v>
   <v>       0.40625000       0.28125000       0.03125000 </v>
   <v>       0.46875000       0.28125000       0.03125000 </v>
   <v>       0.34375000       0.34375000       0.03125000 </v>
   <v>       0.40625000       0.34375000       0.03125000 </v>
   <v>       0.46875000       0.34375000       0.03125000 </v>
   <v>       0.40625000       0.40625000       0.03125000 </v>
   <v>       0.46875000       0.40625000       0.03125000 </v>
   <v>       0.46875000       0.46875000       0.03125000 </v>
   <v>       0.09375000       0.09375000       0.09375000 </v>
   <v>       0.15625000       0.09375000       0.09375000 </v>
   <v>       0.21875000       0.09375000       0.09375000 </v>
   <v>       0.28125000       0.09375000       0.09375000 </v>
   <v>       0.34375000       0.09375000       0.09375000 </v>
   <v>       0.40625000       0.09375000       0.09375000 </v>
   <v>       0.46875000       0.09375000       0.09375000 </v>
   <v>       0.15625000       0.15625000       0.09375000 </v>
   <v>       0.21875000       0.15625000       0.09375000 </v>
   <v>       0.28125000       0.15625000       0.09375000 </v>
   <v>       0.34375000       0.15625000       0.09375000 </v>
   <v>       0.40625000       0.15625000       0.09375000 </v>
   <v>       0.46875000       0.15625000       0.09375000 </v>
   <v>       0.21875000       0.21875000       0.09375000 </v>
   <v>       0.28125000       0.21875000       0.09375000 </v>
   <v>       0.34375000       0.21875000       0.09375000 </v>
   <v>       0.40625000       0.21875000       0.09375000 </v>
   <v>       0.46875000       0.21875000       0.09375000 </v>
   <v>       0.28125000       0.28125000       0.09375000 </v>
   <v>       0.34375000       0.28125000       0.09375000 </v>
   <v>       0.40625000       0.28125000       0.09375000 </v>
   <v>       0.46875000       0.28125000       0.09375000 </v>
   <v>       0.34375000       0.34375000       0.09375000 </v>
   <v>       0.40625000       0.34375000       0.09375000 </v>
   <v>       0.46875000       0.34375000       0.09375000 </v>
   <v>       0.40625000       0.40625000       0.09375000 </v>
   <v>       0.46875000       0.40625000       0.09375000 </v>
   <v>       0.46875000       0.46875000       0.09375000 </v>
   <v>       0.15625000       0.15625000       0.15625000 </v>
   <v>       0.21875000       0.15625000       0.15625000 </v>
   <v>       0.28125000       0.15625000       0.15625000 </v>
   <v>       0.34375000       0.15625000       0.15625000 </v>
   <v>       0.40625000       0.15625000       0.15625000 </v>
   <v>       0.46875000       0.15625000       0.15625000 </v>
   <v>       0.21875000       0.21875000       0.15625000 </v>
   <v>       0.28125000       0.21875000       0.15625000 </v>
   <v>       0.34375000       0.21875000       0.15625000 </v>
   <v>       0.40625000       0.21875000       0.15625000 </v>
   <v>       0.46875000       0.21875000       0.15625000 </v>
   <v>       0.28125000       0.28125000       0.15625000 </v>
   <v>       0.34375000       0.28125000       0.15625000 </v>
   <v>       0.40625000       0.28125000       0.15625000 </v>
   <v>       0.46875000       0.28125000       0.15625000 </v>
   <v>       0.34375000       0.34375000       0.15625000 </v>
   <v>       0.40625000       0.34375000       0.15625000 </v>
   <v>       0.46875000       0.34375000       0.15625000 </v>
   <v>       0.40625000       0.40625000       0.15625000 </v>
   <v>       0.46875000       0.40625000       0.15625000 </v>
   <v>       0.46875000       0.46875000       0.15625000 </v>
   <v>       0.21875000       0.21875000       0.21875000 </v>
   <v>       0.28125000       0.21875000       0.21875000 </v>
   <v>       0.34375000       0.21875000       0.21875000 </v>
   <v>       0.40625000       0.21875000       0.21875000 </v>
   <v>       0.46875000       0.21875000       0.21875000 </v>
   <v>       0.28125000       0.28125000       0.21875000 </v>
   <v>       0.34375000       0.28125000       0.21875000 </v>
   <v>       0.40625000       0.28125000       0.21875000 </v>
   <v>       0.46875000       0.28125000       0.21875000 </v>
   <v>       0.34375000       0.34375000       0.21875000 </v>
   <v>       0.40625000       0.34375000       0.21875000 </v>
   <v>       0.46875000       0.34375000       0.21875000 </v>
   <v>       0.40625000       0.40625000       0.21875000 </v>
   <v>       0.46875000       0.40625000       0.21875000 </v>
   <v>       0.46875000       0.46875000       0.21875000 </v>
   <v>       0.28125000       0.28125000       0.28125000 </v>
   <v>       0.34375000       0.28125000       0.28125000 </v>
   <v>       0.40625000       0.28125000       0.28125000 </v>
   <v>       0.46875000       0.28125000       0.28125000 </v>
   <v>       0.34375000       0.34375000       0.28125000 </v>
   <v>       0.40625000       0.34375000       0.28125000 </v>
   <v>       0.46875000       0.34375000       0.28125000 </v>
   <v>       0.40625000       0.40625000       0.28125000 </v>
   <v>       0.46875000       0.40625000       0.28125000 </v>
   <v>       0.46875000       0.46875000       0.28125000 </v>
   <v>       0.34375000       0.34375000       0.34375000 </v>
   <v>       0.40625000       0.34375000       0.34375000 </v>
   <v>       0.46875000       0.34375000       0.34375000 </v>
   <v>       0.40625000       0.40625000       0.34375000 </v>
   <v>       0.46875000       0.40625000       0.34375000 </v>
   <v>       0.46875000       0.46875000       0.34375000 </v>
   <v>       0.40625000       0.40625000       0.40625000 </v>
   <v>       0.46875000       0.40625000       0.40625000 </v>
   <v>       0.46875000       0.46875000       0.40625000 </v>
   <v>       0.46875000       0.46875000       0.46875000 </v>
  </varray>
  <varray name="weights" >
   <v>       0.00195312 </v>
   <v>       0.00585938 </v>
   <v>       0.00585938 </v>
   <v>       0.00585938 </v>
   <v>       0.00585938 </v>
   <v>       0.00585938 </v>
   <v>       0.00585938 </v>
   <v>       0.00585938 </v>
   <v>       0.00585938 </v>
   <v>       0.01171875 </v>
   <v>       0.01171875 </v>
   <v>       0.01171875 </v>
   <v>       0.01171875 </v>
   <v>       0.01171875 </v>
   <v>       0.01171875 </v>
   <v>       0.00585938 </v>
   <v>       0.01171875 </v>
   <v>       0.01171875 </v>
   <v>       0.01171875 </v>
   <v>       0.01171875 </v>
   <v>       0.01171875 </v>
   <v>       0.00585938 </v>
   <v>       0.01171875 </v>
   <v>       0.01171875 </v>
   <v>       0.01171875 </v>
   <v>       0.01171875 </v>
   <v>       0.00585938 </v>
   <v>       0.01171875 </v>
   <v>       0.01171875 </v>
   <v>       0.01171875 </v>
   <v>       0.00585938 </v>
   <v>       0.01171875 </v>
   <v>       0.01171875 </v>
   <v>       0.00585938 </v>
   <v>       0.01171875 </v>
   <v>       0.00585938 </v>
   <v>       0.00195312 </v>
   <v>       0.00585938 </v>
   <v>       0.00585938 </v>
   <v>       0.00585938 </v>
   <v>       0.00585938 </v>
   <v>       0.00585938 </v>
   <v>       0.00585938 </v>
   <v>       0.00585938 </v>
   <v>       0.01171875 </v>
   <v>       0.01171875 </v>
   <v>       0.01171875 </v>
   <v>       0.01171875 </v>
   <v>       0.01171875 </v>
   <v>       0.00585938 </v>
   <v>       0.01171875 </v>
   <v>       0.01171875 </v>
   <v>       0.01171875 </v>
   <v>       0.01171875 </v>
   <v>       0.00585938 </v>
   <v>       0.01171875 </v>
   <v>       0.01171875 </v>
   <v>       0.01171875 </v>
   <v>       0.00585938 </v>
   <v>       0.01171875 </v>
   <v>       0.01171875 </v>
   <v>       0.00585938 </v>
   <v>       0.01171875 </v>
   <v>       0.00585938 </v>
   <v>       0.00195312 </v>
   <v>       0.00585938 </v>
   <v>       0.00585938 </v>
   <v>       0.00585938 </v>
   <v>       0.00585938 </v>
   <v>       0.00585938 </v>
   <v>       0.00585938 </v>
   <v>       0.01171875 </v>
   <v>       0.01171875 </v>
   <v>       0.01171875 </v>
   <v>       0.01171875 </v>
   <v>       0.00585938 </v>
   <v>       0.01171875 </v>
   <v>       0.01171875 </v>
   <v>       0.01171875 </v>
   <v>       0.00585938 </v>
   <v>       0.01171875 </v>
   <v>       0.01171875 </v>
   <v>       0.00585938 </v>
   <v>       0.01171875 </v>
   <v>       0.00585938 </v>
   <v>       0.00195312 </v>
   <v>       0.00585938 </v>
   <v>       0.00585938 </v>
   <v>       0.00585938 </v>
   <v>       0.00585938 </v>
   <v>       0.00585938 </v>
   <v>       0.01171875 </v>
   <v>       0.01171875 </v>
   <v>       0.01171875 </v>
   <v>       0.00585938 </v>
   <v>       0.01171875 </v>
   <v>       0.01171875 </v>
   <v>       0.00585938 </v>
   <v>       0.01171875 </v>
   <v>       0.00585938 </v>
   <v>       0.00195312 </v>
   <v>       0.00585938 </v>
   <v>       0.00585938 </v>
   <v>       0.00585938 </v>
   <v>       0.00585938 </v>
   <v>       0.01171875 </v>
   <v>       0.01171875 </v>
   <v>       0.00585938 </v>
   <v>       0.01171875 </v>
   <v>       0.00585938 </v>
   <v>       0.00195312 </v>
   <v>       0.00585938 </v>
   <v>       0.00585938 </v>
   <v>       0.00585938 </v>
   <v>       0.01171875 </v>
   <v>       0.00585938 </v>
   <v>       0.00195312 </v>
   <v>       0.00585938 </v>
   <v>       0.00585938 </v>
   <v>       0.00195312 </v>
  </varray>
 </kpoints>
 <parameters>
  <separator name="general" >
   <i type="string" name="SYSTEM">Pt bulk calculation</i>
   <i type="logical" name="LCOMPAT"> F  </i>
  </separator>
  <separator name="electronic" >
   <i type="string" name="PREC">normal</i>
   <i name="ENMAX">    450.00000000</i>
   <i name="ENAUG">    358.96600000</i>
   <i name="EDIFF">      0.00000100</i>
   <i type="int" name="IALGO">    38</i>
   <i type="int" name="IWAVPR">    11</i>
   <i type="int" name="NBANDS">    24</i>
   <i name="NELECT">     40.00000000</i>
   <i type="int" name="TURBO">     0</i>
   <i type="int" name="IRESTART">     0</i>
   <i type="int" name="NREBOOT">     0</i>
   <i type="int" name="NMIN">     0</i>
   <i name="EREF">      0.00000000</i>
   <separator name="electronic smearing" >
    <i type="int" name="ISMEAR">     2</i>
    <i name="SIGMA">      0.20000000</i>
    <i name="KSPACING">      0.50000000</i>
    <i type="logical" name="KGAMMA"> T  </i>
   </separator>
   <separator name="electronic projectors" >
    <i type="logical" name="LREAL"> F  </i>
    <v name="ROPT">      0.00000000</v>
    <i type="int" name="LMAXPAW">  -100</i>
    <i type="int" name="LMAXMIX">     2</i>
    <i type="logical" name="NLSPLINE"> F  </i>
   </separator>
   <separator name="electronic startup" >
    <i type="int" name="ISTART">     0</i>
    <i type="int" name="ICHARG">     2</i>
    <i type="int" name="INIWAV">     1</i>
   </separator>
   <separator name="electronic spin" >
    <i type="int" name="ISPIN">     1</i>
    <i type="logical" name="LNONCOLLINEAR"> F  </i>
    <v name="MAGMOM">      1.00000000      1.00000000      1.00000000      1.00000000</v>
    <i name="NUPDOWN">     -1.00000000</i>
    <i type="logical" name="LSORBIT"> F  </i>
    <v name="SAXIS">      0.00000000      0.00000000      1.00000000</v>
    <i type="logical" name="LSPIRAL"> F  </i>
    <v name="QSPIRAL">      0.00000000      0.00000000      0.00000000</v>
    <i type="logical" name="LZEROZ"> F  </i>
   </separator>
   <separator name="electronic exchange-correlation" >
    <i type="logical" name="LASPH"> F  </i>
    <i type="logical" name="LMETAGGA"> F  </i>
   </separator>
   <separator name="electronic convergence" >
    <i type="int" name="NELM">    60</i>
    <i type="int" name="NELMDL">    -5</i>
    <i type="int" name="NELMIN">    10</i>
    <i name="ENINI">    450.00000000</i>
    <separator name="electronic convergence detail" >
     <i type="logical" name="LDIAG"> T  </i>
     <i type="logical" name="LSUBROT"> F  </i>
     <i name="WEIMIN">      0.00100000</i>
     <i name="EBREAK">      0.00000001</i>
     <i name="DEPER">      0.30000000</i>
     <i type="int" name="NRMM">     4</i>
     <i name="TIME">      0.40000000</i>
    </separator>
   </separator>
   <separator name="electronic mixer" >
    <i name="AMIX">      0.40000000</i>
    <i name="BMIX">      1.00000000</i>
    <i name="AMIN">      0.10000000</i>
    <i name="AMIX_MAG">      1.60000000</i>
    <i name="BMIX_MAG">      1.00000000</i>
    <separator name="electronic mixer details" >
     <i type="int" name="IMIX">     4</i>
     <i type="logical" name="MIXFIRST"> F  </i>
     <i type="int" name="MAXMIX">   -45</i>
     <i name="WC">    100.00000000</i>
     <i type="int" name="INIMIX">     1</i>
     <i type="int" name="MIXPRE">     1</i>
     <i type="int" name="MREMOVE">     5</i>
    </separator>
   </separator>
   <separator name="electronic dipolcorrection" >
    <i type="logical" name="LDIPOL"> F  </i>
    <i type="logical" name="LMONO"> F  </i>
    <i type="int" name="IDIPOL">     0</i>
    <i name="EPSILON">      1.00000000</i>
    <v name="DIPOL">   -100.00000000   -100.00000000   -100.00000000</v>
    <i name="EFIELD">      0.00000000</i>
   </separator>
  </separator>
  <separator name="grids" >
   <i type="int" name="NGX">    20</i>
   <i type="int" name="NGY">    20</i>
   <i type="int" name="NGZ">    20</i>
   <i type="int" name="NGXF">    40</i>
   <i type="int" name="NGYF">    40</i>
   <i type="int" name="NGZF">    40</i>
   <i type="logical" name="ADDGRID"> F  </i>
  </separator>
  <separator name="ionic" >
   <i type="int" name="NSW">    10</i>
   <i type="int" name="IBRION">     2</i>
   <i type="int" name="MDALGO">     0</i>
   <i type="int" name="ISIF">     2</i>
   <i name="PSTRESS">      0.00000000</i>
   <i name="EDIFFG">     -0.02000000</i>
   <i type="int" name="NFREE">     1</i>
   <i name="POTIM">      0.20000000</i>
   <i name="SMASS">     -3.00000000</i>
   <i name="SCALEE">      1.00000000</i>
  </separator>
  <separator name="ionic md" >
   <i name="TEBEG">      0.00010000</i>
   <i name="TEEND">      0.00010000</i>
   <i type="int" name="NBLOCK">     1</i>
   <i type="int" name="KBLOCK">    10</i>
   <i type="int" name="NPACO">   256</i>
   <i name="APACO">     16.00000000</i>
  </separator>
  <separator name="symmetry" >
   <i type="int" name="ISYM">     2</i>
   <i name="SYMPREC">      0.00001000</i>
  </separator>
  <separator name="dos" >
   <i type="int" name="LORBIT">     0</i>
   <v name="RWIGS">     -1.00000000</v>
   <i type="int" name="NEDOS">   301</i>
   <i name="EMIN">     10.00000000</i>
   <i name="EMAX">    -10.00000000</i>
   <i name="EFERMI">      0.00000000</i>
  </separator>
  <separator name="writing" >
   <i type="int" name="NWRITE">     2</i>
   <i type="logical" name="LWAVE"> T  </i>
   <i type="logical" name="LDOWNSAMPLE"> F  </i>
   <i type="logical" name="LCHARG"> T  </i>
   <i type="logical" name="LPARD"> F  </i>
   <i type="logical" name="LVTOT"> F  </i>
   <i type="logical" name="LVHAR"> F  </i>
   <i type="logical" name="LELF"> F  </i>
   <i type="logical" name="LOPTICS"> F  </i>
   <v name="STM">      0.00000000      0.00000000      0.00000000      0.00000000      0.00000000      0.00000000      0.00000000</v>
  </separator>
  <separator name="performance" >
   <i type="int" name="NPAR">     2</i>
   <i type="int" name="NSIM">     4</i>
   <i type="int" name="NBLK">    -1</i>
   <i type="logical" name="LPLANE"> T  </i>
   <i type="logical" name="LSCALAPACK"> F  </i>
   <i type="logical" name="LSCAAWARE"> F  </i>
   <i type="logical" name="LSCALU"> F  </i>
   <i type="logical" name="LASYNC"> F  </i>
   <i type="logical" name="LORBITALREAL"> F  </i>
  </separator>
  <separator name="miscellaneous" >
   <i type="int" name="IDIOT">     3</i>
   <i type="int" name="ISPECIAL">     0</i>
   <i type="logical" name="LMUSIC"> F  </i>
   <v name="POMASS">    195.08000000</v>
   <v name="DARWINR">      0.00000000</v>
   <v name="DARWINV">      1.00000000</v>
   <i type="logical" name="LCORR"> T  </i>
  </separator>
  <i type="logical" name="GGA_COMPAT"> T  </i>
  <i type="logical" name="LBERRY"> F  </i>
  <i type="int" name="ICORELEVEL">     0</i>
  <i type="logical" name="LDAU"> F  </i>
  <i type="int" name="I_CONSTRAINED_M">     0</i>
  <separator name="electronic exchange-correlation" >
   <i type="string" name="GGA">91</i>
   <i type="int" name="VOSKOWN">     0</i>
   <i type="logical" name="LHFCALC"> F  </i>
   <i type="string" name="PRECFOCK"></i>
   <i type="logical" name="LSYMGRAD"> F  </i>
   <i type="logical" name="LHFONE"> F  </i>
   <i type="logical" name="LRHFCALC"> F  </i>
   <i type="logical" name="LTHOMAS"> F  </i>
   <i type="logical" name="LMODELHF"> F  </i>
   <i name="ENCUT4O">     -1.00000000</i>
   <i type="int" name="EXXOEP">     0</i>
   <i type="int" name="FOURORBIT">     0</i>
   <i name="AEXX">      0.00000000</i>
   <i name="HFALPHA">      0.00000000</i>
   <i name="MCALPHA">      0.00000000</i>
   <i name="ALDAX">      1.00000000</i>
   <i name="AGGAX">      1.00000000</i>
   <i name="ALDAC">      1.00000000</i>
   <i name="AGGAC">      1.00000000</i>
   <i type="int" name="NKREDX">     1</i>
   <i type="int" name="NKREDY">     1</i>
   <i type="int" name="NKREDZ">     1</i>
   <i type="logical" name="SHIFTRED"> F  </i>
   <i type="logical" name="ODDONLY"> F  </i>
   <i type="logical" name="EVENONLY"> F  </i>
   <i type="int" name="LMAXFOCK">     0</i>
   <i type="int" name="NMAXFOCKAE">     0</i>
   <i type="logical" name="LFOCKAEDFT"> F  </i>
   <i name="HFSCREEN">      0.00000000</i>
   <i name="HFSCREENC">      0.00000000</i>
   <i type="int" name="NBANDSGWLOW">     0</i>
  </separator>
  <separator name="vdW DFT" >
   <i type="logical" name="LUSE_VDW"> F  </i>
   <i name="Zab_VDW">     -0.84910000</i>
   <i name="PARAM1">      0.12340000</i>
   <i name="PARAM2">      1.00000000</i>
   <i name="PARAM3">      0.00000000</i>
  </separator>
  <separator name="model GW" >
   <i type="int" name="MODEL_GW">     0</i>
   <i name="MODEL_EPS0">      8.49346560</i>
   <i name="MODEL_ALPHA">      1.00000000</i>
  </separator>
  <separator name="linear response parameters" >
   <i type="logical" name="LEPSILON"> F  </i>
   <i type="logical" name="LRPA"> F  </i>
   <i type="logical" name="LNABLA"> F  </i>
   <i type="logical" name="LVEL"> F  </i>
   <i type="int" name="KINTER">     0</i>
   <i name="CSHIFT">      0.10000000</i>
   <i name="OMEGAMAX">     -1.00000000</i>
   <i name="DEG_THRESHOLD">      0.00200000</i>
   <i name="RTIME">     -0.10000000</i>
   <i name="WPLASMAI">      0.00000000</i>
   <v name="DFIELD">      0.00000000      0.00000000      0.00000000</v>
   <v name="WPLASMA">      0.00000000      0.00000000      0.00000000      0.00000000      0.00000000      0.00000000      0.00000000      0.00000000      0.00000000</v>
  </separator>
  <separator name="orbital magnetization" >
   <i type="logical" name="NUCIND"> F  </i>
   <v name="MAGPOS">      0.00000000      0.00000000      0.00000000</v>
   <i type="logical" name="LNICSALL"> T  </i>
   <i type="logical" name="ORBITALMAG"> F  </i>
   <i type="logical" name="LMAGBLOCH"> F  </i>
   <i type="logical" name="LCHIMAG"> F  </i>
   <i type="logical" name="LGAUGE"> T  </i>
   <i type="int" name="MAGATOM">     0</i>
   <v name="MAGDIPOL">      0.00000000      0.00000000      0.00000000</v>
   <v name="AVECCONST">      0.00000000      0.00000000      0.00000000</v>
  </separator>
  <separator name="response functions" >
   <i type="logical" name="LADDER"> F  </i>
   <i type="logical" name="LRPAFORCE"> F  </i>
   <i type="logical" name="LFXC"> F  </i>
   <i type="logical" name="LHARTREE"> T  </i>
   <i type="int" name="IBSE">     0</i>
   <v type="int" name="KPOINT">    -1     0     0     0</v>
   <i type="logical" name="LTCTE"> F  </i>
   <i type="logical" name="LTETE"> F  </i>
   <i type="logical" name="LTRIPLET"> F  </i>
   <i type="logical" name="LFXCEPS"> F  </i>
   <i type="logical" name="LFXHEG"> F  </i>
   <i type="int" name="NATURALO">     2</i>
   <i type="logical" name="L2ORDER"> F  </i>
   <i type="logical" name="LMP2LT"> F  </i>
   <i type="logical" name="LUSEW"> F  </i>
   <i name="ENCUTGW">     -2.00000000</i>
   <i name="ENCUTGWSOFT">     -2.00000000</i>
   <i name="ENCUTLF">     -1.00000000</i>
   <i type="int" name="LMAXMP2">    -1</i>
   <i name="SCISSOR">      0.00000000</i>
   <i type="int" name="NOMEGA">     0</i>
   <i type="int" name="NOMEGAR">     0</i>
   <i type="int" name="NBANDSGW">    -1</i>
   <i type="int" name="NBANDSO">    -1</i>
   <i type="int" name="NBANDSV">    -1</i>
   <i type="int" name="NELM">     1</i>
   <i type="int" name="NELMHF">     1</i>
   <i type="int" name="DIM">     3</i>
   <i type="int" name="ANTIRES">     0</i>
   <i name="OMEGAMAX">    -30.00000000</i>
   <i name="OMEGAMIN">    -30.00000000</i>
   <i name="OMEGATL">   -200.00000000</i>
   <i type="int" name="OMEGAGRID">   140</i>
   <i name="CSHIFT">     -0.10000000</i>
   <i type="logical" name="SELFENERGY"> F  </i>
   <i type="logical" name="LSPECTRAL"> F  </i>
   <i type="logical" name="LSPECTRALGW"> F  </i>
   <i type="logical" name="LSINGLES"> F  </i>
   <i type="logical" name="LFERMIGW"> F  </i>
   <i type="logical" name="ODDONLYGW"> F  </i>
   <i type="logical" name="EVENONLYGW"> F  </i>
   <i type="int" name="NKREDLFX">     1</i>
   <i type="int" name="NKREDLFY">     1</i>
   <i type="int" name="NKREDLFZ">     1</i>
   <i type="int" name="MAXMEM">  2800</i>
   <i type="int" name="TELESCOPE">     0</i>
   <i type="int" name="TAUPAR">     1</i>
   <i type="int" name="OMEGAPAR">    -1</i>
   <i name="LAMBDA">      1.00000000</i>
  </separator>
  <separator name="External order field" >
   <i name="OFIELD_KAPPA">      0.00000000</i>
   <v name="OFIELD_K">      0.00000000      0.00000000      0.00000000</v>
   <i name="OFIELD_Q6_NEAR">      0.00000000</i>
   <i name="OFIELD_Q6_FAR">      0.00000000</i>
   <i name="OFIELD_A">      0.00000000</i>
  </separator>
 </parameters>
 <atominfo>
  <atoms>       4 </atoms>
  <types>       1 </types>
  <array name="atoms" >
   <dimension dim="1">ion</dimension>
   <field type="string">element</field>
   <field type="int">atomtype</field>
   <set>
    <rc><c>Pt</c><c>   1</c></rc>
    <rc><c>Pt</c><c>   1</c></rc>
    <rc><c>Pt</c><c>   1</c></rc>
    <rc><c>Pt</c><c>   1</c></rc>
   </set>
  </array>
  <array name="atomtypes" >
   <dimension dim="1">type</dimension>
   <field type="int">atomspertype</field>
   <field type="string">element</field>
   <field>mass</field>
   <field>valence</field>
   <field type="string">pseudopotential</field>
   <set>
    <rc><c>   4</c><c>Pt</c><c>    195.08000000</c><c>     10.00000000</c><c> PAW_PBE Pt 05Jan2001                   </c></rc>
   </set>
  </array>
 </atominfo>
 <structure name="initialpos" >
  <crystal>
   <varray name="basis" >
    <v>       3.84000000       0.00000000       0.00000000 </v>
    <v>       0.00000000       3.84000000       0.00000000 </v>
    <v>       0.00000000       0.00000000       3.84000000 </v>
   </varray>
   <i name="volume">     56.62310400 </i>
   <varray name="rec_basis" >
    <v>       0.26041667       0.00000000       0.00000000 </v>
    <v>       0.00000000       0.26041667       0.00000000 </v>
    <v>       0.00000000       0.00000000       0.26041667 </v>
   </varray>
  </crystal>
  <varray name="positions" >
   <v>       0.00000000       0.00000000       0.00000000 </v>
   <v>       0.00000000       0.50000000       0.50000000 </v>
   <v>       0.50000000       0.00000000       0.50000000 </v>
   <v>       0.50000000       0.50000000       0.00000000 </v>
  </varray>
 </structure>
 <calculation>
  <scstep>
   <time name="dav">    0.96    0.96</time>
   <time name="total">    0.98    1.17</time>
   <energy>
    <i name="alphaZ">    411.12625687 </i>
    <i name="ewald">  -3438.59576860 </i>
    <i name="hartreedc">   -264.26998858 </i>
    <i name="XCdc">     15.29870148 </i>
    <i name="pawpsdc">   2293.79710215 </i>
    <i name="pawaedc">  -2181.03440391 </i>
    <i name="eentropy">     -0.00060125 </i>
    <i name="bandstr">    707.80154769 </i>
    <i name="atom">   2915.53815049 </i>
    <i name="e_fr_energy">    459.66099635 </i>
    <i name="e_wo_entrp">    459.66159760 </i>
    <i name="e_0_energy">    459.66114666 </i>
   </energy>
  </scstep>
  <scstep>
   <time name="dav">    0.98    0.98</time>
   <time name="total">    0.98    0.99</time>
   <energy>
    <i name="e_fr_energy">      3.41456533 </i>
    <i name="e_wo_entrp">      3.41214340 </i>
    <i name="e_0_energy">      3.41395984 </i>
   </energy>
  </scstep>
  <scstep>
   <time name="dav">    1.27    1.27</time>
   <time name="total">    1.28    1.28</time>
   <energy>
    <i name="e_fr_energy">    -24.45498678 </i>
    <i name="e_wo_entrp">    -24.45565034 </i>
    <i name="e_0_energy">    -24.45515267 </i>
   </energy>
  </scstep>
  <scstep>
   <time name="dav">    0.97    0.97</time>
   <time name="total">    0.98    0.98</time>
   <energy>
    <i name="e_fr_energy">    -25.24231502 </i>
    <i name="e_wo_entrp">    -25.24289128 </i>
    <i name="e_0_energy">    -25.24245908 </i>
   </energy>
  </scstep>
  <scstep>
   <time name="dav">    1.08    1.08</time>
   <time name="total">    1.15    1.15</time>
   <energy>
    <i name="e_fr_energy">    -25.26375731 </i>
    <i name="e_wo_entrp">    -25.26448205 </i>
    <i name="e_0_energy">    -25.26393849 </i>
   </energy>
  </scstep>
  <scstep>
   <time name="dav">    1.07    1.07</time>
   <time name="total">    1.14    1.14</time>
   <energy>
    <i name="e_fr_energy">    -23.89976786 </i>
    <i name="e_wo_entrp">    -23.89582657 </i>
    <i name="e_0_energy">    -23.89878254 </i>
   </energy>
  </scstep>
  <scstep>
   <time name="dav">    1.26    1.26</time>
   <time name="total">    1.33    1.33</time>
   <energy>
    <i name="e_fr_energy">    -23.72082957 </i>
    <i name="e_wo_entrp">    -23.71614863 </i>
    <i name="e_0_energy">    -23.71965934 </i>
   </energy>
  </scstep>
  <scstep>
   <time name="dav">    0.96    0.96</time>
   <time name="total">    1.03    1.03</time>
   <energy>
    <i name="e_fr_energy">    -23.70186317 </i>
    <i name="e_wo_entrp">    -23.69730991 </i>
    <i name="e_0_energy">    -23.70072485 </i>
   </energy>
  </scstep>
  <scstep>
   <time name="dav">    1.16    1.16</time>
   <time name="total">    1.23    1.23</time>
   <energy>
    <i name="e_fr_energy">    -23.70157895 </i>
    <i name="e_wo_entrp">    -23.69699539 </i>
    <i name="e_0_energy">    -23.70043306 </i>
   </energy>
  </scstep>
  <scstep>
   <time name="dav">    1.01    1.01</time>
   <time name="total">    1.08    1.08</time>
   <energy>
    <i name="e_fr_energy">    -23.70160147 </i>
    <i name="e_wo_entrp">    -23.69702891 </i>
    <i name="e_0_energy">    -23.70045833 </i>
   </energy>
  </scstep>
  <scstep>
   <time name="dav">    0.78    0.78</time>
   <time name="total">    0.85    0.85</time>
   <energy>
    <i name="e_fr_energy">    -23.70160432 </i>
    <i name="e_wo_entrp">    -23.69703175 </i>
    <i name="e_0_energy">    -23.70046118 </i>
   </energy>
  </scstep>
  <scstep>
   <time name="dav">    0.62    0.62</time>
   <time name="total">    0.64    0.64</time>
   <energy>
    <i name="alphaZ">    411.12625687 </i>
    <i name="ewald">  -3438.59576860 </i>
    <i name="hartreedc">   -225.28730162 </i>
    <i name="XCdc">     13.83803873 </i>
    <i name="pawpsdc">   2474.66431711 </i>
    <i name="pawaedc">  -2374.07618603 </i>
    <i name="eentropy">     -0.00457248 </i>
    <i name="bandstr">    199.09546127 </i>
    <i name="atom">   2915.53815049 </i>
    <i name="e_fr_energy">    -23.70160426 </i>
    <i name="e_wo_entrp">    -23.69703177 </i>
    <i name="e_0_energy">    -23.70046113 </i>
   </energy>
  </scstep>
  <structure>
   <crystal>
    <varray name="basis" >
     <v>       3.84000000       0.00000000       0.00000000 </v>
     <v>       0.00000000       3.84000000       0.00000000 </v>
     <v>       0.00000000       0.00000000       3.84000000 </v>
    </varray>
    <i name="volume">     56.62310400 </i>
    <varray name="rec_basis" >
     <v>       0.26041667       0.00000000       0.00000000 </v>
     <v>       0.00000000       0.26041667       0.00000000 </v>
     <v>       0.00000000       0.00000000       0.26041667 </v>
    </varray>
   </crystal>
   <varray name="positions" >
    <v>       0.00000000       0.00000000       0.00000000 </v>
    <v>       0.00000000       0.50000000       0.50000000 </v>
    <v>       0.50000000       0.00000000       0.50000000 </v>
    <v>       0.50000000       0.50000000       0.00000000 </v>
   </varray>
  </structure>
  <varray name="forces" >
   <v>       0.00000000       0.00000000      -0.00000000 </v>
   <v>       0.00000000      -0.00000000      -0.00000000 </v>
   <v>      -0.00000000       0.00000000       0.00000000 </v>
   <v>       0.00000000      -0.00000000       0.00000000 </v>
  </varray>
  <varray name="stress" >
   <v>     380.70458792      -0.00000000       0.00000000 </v>
   <v>      -0.00000000     380.70458792       0.00000000 </v>
   <v>      -0.00000000      -0.00000000     380.70458792 </v>
  </varray>
  <energy>
   <i name="e_fr_energy">    -23.70160426 </i>
   <i name="e_wo_entrp">    -23.70046113 </i>
   <i name="e_0_energy">     -0.00457248 </i>
  </energy>
  <time name="totalsc">   13.66   15.41</time>
  <eigenvalues>
   <array>
    <dimension dim="1">band</dimension>
    <dimension dim="2">kpoint</dimension>
    <dimension dim="3">spin</dimension>
    <field>eigene</field>
    <field>occ</field>
    <set>
     <set comment="spin 1">
      <set comment="kpoint 1">
       <r>   -1.8888    1.0000 </r>
       <r>    1.1895    1.0000 </r>
       <r>    1.1895    1.0000 </r>
       <r>    1.1895    1.0000 </r>
       <r>    1.6699    1.0000 </r>
       <r>    1.6699    1.0000 </r>
       <r>    1.6699    1.0000 </r>
       <r>    4.7477    1.0000 </r>
       <r>    4.7857    1.0000 </r>
       <r>    4.7857    1.0000 </r>
       <r>    7.1674    1.0000 </r>
       <r>    7.1674    1.0000 </r>
       <r>    8.9755    0.6120 </r>
       <r>    8.9755    0.6120 </r>
       <r>    8.9755    0.6120 </r>
       <r>    9.2515   -0.0308 </r>
       <r>    9.2515   -0.0308 </r>
       <r>    9.2515   -0.0308 </r>
       <r>    9.5281    0.0012 </r>
       <r>    9.5281    0.0012 </r>
       <r>    9.5281    0.0012 </r>
       <r>   10.9761    0.0000 </r>
       <r>   10.9761    0.0000 </r>
       <r>   10.9761    0.0000 </r>
      </set>
      <set comment="kpoint 2">
       <r>   -1.7767    1.0000 </r>
       <r>    1.2373    1.0000 </r>
       <r>    1.2727    1.0000 </r>
       <r>    1.2727    1.0000 </r>
       <r>    1.7171    1.0000 </r>
       <r>    1.7445    1.0000 </r>
       <r>    1.7445    1.0000 </r>
       <r>    4.6761    1.0000 </r>
       <r>    4.8405    1.0000 </r>
       <r>    4.8451    1.0000 </r>
       <r>    7.0804    1.0000 </r>
       <r>    7.1998    1.0000 </r>
       <r>    8.5665    0.9955 </r>
       <r>    8.5665    0.9955 </r>
       <r>    8.8517    1.0274 </r>
       <r>    8.8517    1.0274 </r>
       <r>    8.9190    0.8671 </r>
       <r>    9.0366    0.2966 </r>
       <r>    9.3893    0.0048 </r>
       <r>    9.5198    0.0014 </r>
       <r>    9.5198    0.0014 </r>
       <r>   10.4905    0.0000 </r>
       <r>   11.7138    0.0000 </r>
       <r>   11.7138    0.0000 </r>
      </set>
      <set comment="kpoint 3">
       <r>   -1.5554    1.0000 </r>
       <r>    1.3251    1.0000 </r>
       <r>    1.4344    1.0000 </r>
       <r>    1.4344    1.0000 </r>
       <r>    1.8106    1.0000 </r>
       <r>    1.8932    1.0000 </r>
       <r>    1.8932    1.0000 </r>
       <r>    4.5285    1.0000 </r>
       <r>    4.9595    1.0000 </r>
       <r>    4.9633    1.0000 </r>
       <r>    6.9136    1.0000 </r>
       <r>    7.2638    1.0000 </r>
       <r>    7.7674    1.0000 </r>
       <r>    7.7674    1.0000 </r>
       <r>    8.5970    0.9951 </r>
       <r>    8.5978    0.9951 </r>
       <r>    8.5978    0.9951 </r>
       <r>    8.7884    1.0495 </r>
       <r>    9.1543   -0.0393 </r>
       <r>    9.5183    0.0015 </r>
       <r>    9.5183    0.0015 </r>
       <r>    9.7724    0.0000 </r>
       <r>   12.6154    0.0000 </r>
       <r>   12.6154    0.0000 </r>
      </set>
      <set comment="kpoint 4">
       <r>   -1.2310    1.0000 </r>
       <r>    1.4348    1.0000 </r>
       <r>    1.6648    1.0000 </r>
       <r>    1.6648    1.0000 </r>
       <r>    1.9487    1.0000 </r>
       <r>    2.1146    1.0000 </r>
       <r>    2.1146    1.0000 </r>
       <r>    4.3202    1.0000 </r>
       <r>    5.1366    1.0000 </r>
       <r>    5.1394    1.0000 </r>
       <r>    6.6822    1.0000 </r>
       <r>    6.9716    1.0000 </r>
       <r>    6.9716    1.0000 </r>
       <r>    7.3576    1.0000 </r>
       <r>    7.9316    1.0000 </r>
       <r>    8.2436    1.0000 </r>
       <r>    8.2436    1.0000 </r>
       <r>    8.5315    0.9967 </r>
       <r>    8.9156    0.8796 </r>
       <r>    9.0722    0.1424 </r>
       <r>    9.5180    0.0015 </r>
       <r>    9.5180    0.0015 </r>
       <r>   13.5535    0.0000 </r>
       <r>   13.5535    0.0000 </r>
      </set>
      <set comment="kpoint 5">
       <r>   -0.8146    1.0000 </r>
       <r>    1.5339    1.0000 </r>
       <r>    1.9462    1.0000 </r>
       <r>    1.9462    1.0000 </r>
       <r>    2.1288    1.0000 </r>
       <r>    2.4060    1.0000 </r>
       <r>    2.4060    1.0000 </r>
       <r>    4.0654    1.0000 </r>
       <r>    5.3660    1.0000 </r>
       <r>    5.3716    1.0000 </r>
       <r>    6.2088    1.0000 </r>
       <r>    6.2088    1.0000 </r>
       <r>    6.4117    1.0000 </r>
       <r>    7.1460    1.0000 </r>
       <r>    7.4787    1.0000 </r>
       <r>    7.8232    1.0000 </r>
       <r>    7.8232    1.0000 </r>
       <r>    8.1446    1.0000 </r>
       <r>    8.4644    0.9988 </r>
       <r>    8.7196    1.0201 </r>
       <r>    9.5183    0.0015 </r>
       <r>    9.5183    0.0015 </r>
       <r>   14.4882    0.0000 </r>
       <r>   14.4882    0.0000 </r>
      </set>
      <set comment="kpoint 6">
       <r>   -0.3243    1.0000 </r>
       <r>    1.5684    1.0000 </r>
       <r>    2.2491    1.0000 </r>
       <r>    2.2491    1.0000 </r>
       <r>    2.3468    1.0000 </r>
       <r>    2.7636    1.0000 </r>
       <r>    2.7636    1.0000 </r>
       <r>    3.7795    1.0000 </r>
       <r>    5.4908    1.0000 </r>
       <r>    5.4908    1.0000 </r>
       <r>    5.6231    1.0000 </r>
       <r>    5.6576    1.0000 </r>
       <r>    6.1557    1.0000 </r>
       <r>    6.4155    1.0000 </r>
       <r>    7.3901    1.0000 </r>
       <r>    7.3901    1.0000 </r>
       <r>    7.6236    1.0000 </r>
       <r>    7.6989    1.0000 </r>
       <r>    7.9127    1.0000 </r>
       <r>    8.5342    0.9966 </r>
       <r>    9.5188    0.0015 </r>
       <r>    9.5188    0.0015 </r>
       <r>   15.3793    0.0000 </r>
       <r>   15.3793    0.0000 </r>
      </set>
      <set comment="kpoint 7">
       <r>    0.2096    1.0000 </r>
       <r>    1.4676    1.0000 </r>
       <r>    2.5229    1.0000 </r>
       <r>    2.5229    1.0000 </r>
       <r>    2.5980    1.0000 </r>
       <r>    3.1841    1.0000 </r>
       <r>    3.1841    1.0000 </r>
       <r>    3.4773    1.0000 </r>
       <r>    4.8248    1.0000 </r>
       <r>    4.8248    1.0000 </r>
       <r>    5.7152    1.0000 </r>
       <r>    5.8809    1.0000 </r>
       <r>    5.9937    1.0000 </r>
       <r>    6.1478    1.0000 </r>
       <r>    7.0177    1.0000 </r>
       <r>    7.0177    1.0000 </r>
       <r>    7.2404    1.0000 </r>
       <r>    7.3969    1.0000 </r>
       <r>    7.7880    1.0000 </r>
       <r>    8.3455    0.9999 </r>
       <r>    9.5192    0.0014 </r>
       <r>    9.5192    0.0014 </r>
       <r>   16.1078    0.0000 </r>
       <r>   16.1078    0.0000 </r>
      </set>
      <set comment="kpoint 8">
       <r>    0.7369    1.0000 </r>
       <r>    1.1824    1.0000 </r>
       <r>    2.6930    1.0000 </r>
       <r>    2.6930    1.0000 </r>
       <r>    2.8757    1.0000 </r>
       <r>    3.1721    1.0000 </r>
       <r>    3.6667    1.0000 </r>
       <r>    3.6667    1.0000 </r>
       <r>    4.2169    1.0000 </r>
       <r>    4.2169    1.0000 </r>
       <r>    5.6023    1.0000 </r>
       <r>    5.6174    1.0000 </r>
       <r>    6.3749    1.0000 </r>
       <r>    6.4865    1.0000 </r>
       <r>    6.7939    1.0000 </r>
       <r>    6.7954    1.0000 </r>
       <r>    6.7954    1.0000 </r>
       <r>    6.9177    1.0000 </r>
       <r>    7.9670    1.0000 </r>
       <r>    8.1548    1.0000 </r>
       <r>    9.5195    0.0014 </r>
       <r>    9.5195    0.0014 </r>
       <r>   16.3884    0.0000 </r>
       <r>   16.3884    0.0000 </r>
      </set>
      <set comment="kpoint 9">
       <r>   -1.6663    1.0000 </r>
       <r>    1.3211    1.0000 </r>
       <r>    1.3211    1.0000 </r>
       <r>    1.3448    1.0000 </r>
       <r>    1.7908    1.0000 </r>
       <r>    1.7908    1.0000 </r>
       <r>    1.8262    1.0000 </r>
       <r>    4.6360    1.0000 </r>
       <r>    4.8679    1.0000 </r>
       <r>    4.8969    1.0000 </r>
       <r>    7.0562    1.0000 </r>
       <r>    7.1780    1.0000 </r>
       <r>    8.1831    1.0000 </r>
       <r>    8.3077    1.0000 </r>
       <r>    8.3077    1.0000 </r>
       <r>    8.7138    1.0176 </r>
       <r>    8.8204    1.0494 </r>
       <r>    8.8204    1.0494 </r>
       <r>    9.3877    0.0048 </r>
       <r>    9.3877    0.0048 </r>
       <r>    9.4419    0.0040 </r>
       <r>   11.2369    0.0000 </r>
       <r>   11.2369    0.0000 </r>
       <r>   12.2460    0.0000 </r>
      </set>
      <set comment="kpoint 10">
       <r>   -1.4484    1.0000 </r>
       <r>    1.4101    1.0000 </r>
       <r>    1.4842    1.0000 </r>
       <r>    1.4863    1.0000 </r>
       <r>    1.8825    1.0000 </r>
       <r>    1.9376    1.0000 </r>
       <r>    1.9869    1.0000 </r>
       <r>    4.5116    1.0000 </r>
       <r>    4.9690    1.0000 </r>
       <r>    5.0019    1.0000 </r>
       <r>    6.9178    1.0000 </r>
       <r>    7.2315    1.0000 </r>
       <r>    7.5128    1.0000 </r>
       <r>    7.5531    1.0000 </r>
       <r>    7.8659    1.0000 </r>
       <r>    8.4819    0.9984 </r>
       <r>    8.5943    0.9951 </r>
       <r>    8.6832    1.0064 </r>
       <r>    9.1638   -0.0455 </r>
       <r>    9.3777    0.0044 </r>
       <r>    9.3938    0.0049 </r>
       <r>   10.5222    0.0000 </r>
       <r>   12.1042    0.0000 </r>
       <r>   13.0251    0.0000 </r>
      </set>
      <set comment="kpoint 11">
       <r>   -1.1290    1.0000 </r>
       <r>    1.5216    1.0000 </r>
       <r>    1.6920    1.0000 </r>
       <r>    1.7167    1.0000 </r>
       <r>    2.0178    1.0000 </r>
       <r>    2.1562    1.0000 </r>
       <r>    2.2204    1.0000 </r>
       <r>    4.3172    1.0000 </r>
       <r>    5.1390    1.0000 </r>
       <r>    5.1545    1.0000 </r>
       <r>    6.7060    1.0000 </r>
       <r>    6.7332    1.0000 </r>
       <r>    6.8465    1.0000 </r>
       <r>    7.2858    1.0000 </r>
       <r>    7.3354    1.0000 </r>
       <r>    8.1571    1.0000 </r>
       <r>    8.2677    1.0000 </r>
       <r>    8.4148    0.9996 </r>
       <r>    8.8978    0.9363 </r>
       <r>    9.3698    0.0040 </r>
       <r>    9.3707    0.0041 </r>
       <r>    9.7894    0.0000 </r>
       <r>   12.9769    0.0000 </r>
       <r>   13.8948    0.0000 </r>
      </set>
      <set comment="kpoint 12">
       <r>   -0.7188    1.0000 </r>
       <r>    1.6223    1.0000 </r>
       <r>    1.9527    1.0000 </r>
       <r>    2.0017    1.0000 </r>
       <r>    2.1941    1.0000 </r>
       <r>    2.4436    1.0000 </r>
       <r>    2.5147    1.0000 </r>
       <r>    4.0739    1.0000 </r>
       <r>    5.3372    1.0000 </r>
       <r>    5.3695    1.0000 </r>
       <r>    5.9921    1.0000 </r>
       <r>    6.1364    1.0000 </r>
       <r>    6.4697    1.0000 </r>
       <r>    6.6394    1.0000 </r>
       <r>    7.4739    1.0000 </r>
       <r>    7.7656    1.0000 </r>
       <r>    7.8706    1.0000 </r>
       <r>    8.0399    1.0000 </r>
       <r>    8.5637    0.9956 </r>
       <r>    9.1859   -0.0516 </r>
       <r>    9.3599    0.0032 </r>
       <r>    9.3646    0.0036 </r>
       <r>   13.8081    0.0000 </r>
       <r>   14.7863    0.0000 </r>
      </set>
      <set comment="kpoint 13">
       <r>   -0.2352    1.0000 </r>
       <r>    1.6571    1.0000 </r>
       <r>    2.2505    1.0000 </r>
       <r>    2.3101    1.0000 </r>
       <r>    2.4072    1.0000 </r>
       <r>    2.7950    1.0000 </r>
       <r>    2.8527    1.0000 </r>
       <r>    3.7987    1.0000 </r>
       <r>    5.3012    1.0000 </r>
       <r>    5.4529    1.0000 </r>
       <r>    5.4970    1.0000 </r>
       <r>    5.6502    1.0000 </r>
       <r>    6.0356    1.0000 </r>
       <r>    6.2974    1.0000 </r>
       <r>    7.3588    1.0000 </r>
       <r>    7.4517    1.0000 </r>
       <r>    7.6128    1.0000 </r>
       <r>    7.6411    1.0000 </r>
       <r>    8.0967    1.0000 </r>
       <r>    8.7892    1.0497 </r>
       <r>    9.3554    0.0027 </r>
       <r>    9.3610    0.0033 </r>
       <r>   14.5466    0.0000 </r>
       <r>   15.6238    0.0000 </r>
      </set>
      <set comment="kpoint 14">
       <r>    0.2927    1.0000 </r>
       <r>    1.5535    1.0000 </r>
       <r>    2.5441    1.0000 </r>
       <r>    2.5909    1.0000 </r>
       <r>    2.6522    1.0000 </r>
       <r>    3.2056    1.0000 </r>
       <r>    3.2185    1.0000 </r>
       <r>    3.5064    1.0000 </r>
       <r>    4.6715    1.0000 </r>
       <r>    4.8120    1.0000 </r>
       <r>    5.5016    1.0000 </r>
       <r>    5.5947    1.0000 </r>
       <r>    5.9769    1.0000 </r>
       <r>    6.3608    1.0000 </r>
       <r>    7.0117    1.0000 </r>
       <r>    7.0796    1.0000 </r>
       <r>    7.1735    1.0000 </r>
       <r>    7.5776    1.0000 </r>
       <r>    7.8321    1.0000 </r>
       <r>    8.5103    0.9975 </r>
       <r>    9.3541    0.0026 </r>
       <r>    9.3583    0.0030 </r>
       <r>   15.1309    0.0000 </r>
       <r>   15.9524    0.0000 </r>
      </set>
      <set comment="kpoint 15">
       <r>    0.8167    1.0000 </r>
       <r>    1.2638    1.0000 </r>
       <r>    2.7470    1.0000 </r>
       <r>    2.7633    1.0000 </r>
       <r>    2.9225    1.0000 </r>
       <r>    3.2105    1.0000 </r>
       <r>    3.6174    1.0000 </r>
       <r>    3.6672    1.0000 </r>
       <r>    4.1226    1.0000 </r>
       <r>    4.2280    1.0000 </r>
       <r>    5.3921    1.0000 </r>
       <r>    5.4015    1.0000 </r>
       <r>    6.3441    1.0000 </r>
       <r>    6.6653    1.0000 </r>
       <r>    6.7458    1.0000 </r>
       <r>    6.8161    1.0000 </r>
       <r>    6.8419    1.0000 </r>
       <r>    7.0884    1.0000 </r>
       <r>    8.0423    1.0000 </r>
       <r>    8.2679    1.0000 </r>
       <r>    9.3547    0.0026 </r>
       <r>    9.3562    0.0028 </r>
       <r>   15.5295    0.0000 </r>
       <r>   15.7871    0.0000 </r>
      </set>
      <set comment="kpoint 16">
       <r>   -1.2372    1.0000 </r>
       <r>    1.5758    1.0000 </r>
       <r>    1.5758    1.0000 </r>
       <r>    1.5944    1.0000 </r>
       <r>    2.0257    1.0000 </r>
       <r>    2.0257    1.0000 </r>
       <r>    2.1647    1.0000 </r>
       <r>    4.4382    1.0000 </r>
       <r>    5.0294    1.0000 </r>
       <r>    5.0791    1.0000 </r>
       <r>    6.8605    1.0000 </r>
       <r>    7.0900    1.0000 </r>
       <r>    7.0900    1.0000 </r>
       <r>    7.1386    1.0000 </r>
       <r>    7.2398    1.0000 </r>
       <r>    8.2736    1.0000 </r>
       <r>    8.5095    0.9975 </r>
       <r>    8.5095    0.9975 </r>
       <r>    9.1308   -0.0122 </r>
       <r>    9.1308   -0.0122 </r>
       <r>    9.2613   -0.0262 </r>
       <r>   11.3492    0.0000 </r>
       <r>   11.3492    0.0000 </r>
       <r>   13.6897    0.0000 </r>
      </set>
      <set comment="kpoint 17">
       <r>   -0.9276    1.0000 </r>
       <r>    1.6908    1.0000 </r>
       <r>    1.7622    1.0000 </r>
       <r>    1.8126    1.0000 </r>
       <r>    2.1555    1.0000 </r>
       <r>    2.2387    1.0000 </r>
       <r>    2.4107    1.0000 </r>
       <r>    4.2880    1.0000 </r>
       <r>    5.1693    1.0000 </r>
       <r>    5.1865    1.0000 </r>
       <r>    6.3422    1.0000 </r>
       <r>    6.5706    1.0000 </r>
       <r>    6.5904    1.0000 </r>
       <r>    6.7060    1.0000 </r>
       <r>    7.3421    1.0000 </r>
       <r>    7.9898    1.0000 </r>
       <r>    8.2369    1.0000 </r>
       <r>    8.2945    1.0000 </r>
       <r>    8.8267    1.0471 </r>
       <r>    9.1035    0.0435 </r>
       <r>    9.1696   -0.0481 </r>
       <r>   10.5676    0.0000 </r>
       <r>   12.1613    0.0000 </r>
       <r>   14.4783    0.0000 </r>
      </set>
      <set comment="kpoint 18">
       <r>   -0.5298    1.0000 </r>
       <r>    1.7950    1.0000 </r>
       <r>    1.9895    1.0000 </r>
       <r>    2.1044    1.0000 </r>
       <r>    2.3242    1.0000 </r>
       <r>    2.5182    1.0000 </r>
       <r>    2.7032    1.0000 </r>
       <r>    4.0777    1.0000 </r>
       <r>    5.2992    1.0000 </r>
       <r>    5.3826    1.0000 </r>
       <r>    5.6386    1.0000 </r>
       <r>    5.9847    1.0000 </r>
       <r>    6.0223    1.0000 </r>
       <r>    6.5219    1.0000 </r>
       <r>    7.5102    1.0000 </r>
       <r>    7.6471    1.0000 </r>
       <r>    7.8869    1.0000 </r>
       <r>    7.9563    1.0000 </r>
       <r>    8.4809    0.9984 </r>
       <r>    9.0857    0.0953 </r>
       <r>    9.1146    0.0174 </r>
       <r>    9.8762    0.0000 </r>
       <r>   12.9203    0.0000 </r>
       <r>   15.3000    0.0000 </r>
      </set>
      <set comment="kpoint 19">
       <r>   -0.0601    1.0000 </r>
       <r>    1.8302    1.0000 </r>
       <r>    2.2692    1.0000 </r>
       <r>    2.4241    1.0000 </r>
       <r>    2.5273    1.0000 </r>
       <r>    2.8577    1.0000 </r>
       <r>    3.0112    1.0000 </r>
       <r>    3.8290    1.0000 </r>
       <r>    4.9908    1.0000 </r>
       <r>    5.3577    1.0000 </r>
       <r>    5.3720    1.0000 </r>
       <r>    5.5317    1.0000 </r>
       <r>    5.6534    1.0000 </r>
       <r>    6.4157    1.0000 </r>
       <r>    7.2874    1.0000 </r>
       <r>    7.5020    1.0000 </r>
       <r>    7.5500    1.0000 </r>
       <r>    7.7226    1.0000 </r>
       <r>    8.0722    1.0000 </r>
       <r>    9.0742    0.1350 </r>
       <r>    9.0842    0.1001 </r>
       <r>    9.3253   -0.0024 </r>
       <r>   13.5901    0.0000 </r>
       <r>   15.4975    0.0000 </r>
      </set>
      <set comment="kpoint 20">
       <r>    0.4550    1.0000 </r>
       <r>    1.7202    1.0000 </r>
       <r>    2.5786    1.0000 </r>
       <r>    2.7214    1.0000 </r>
       <r>    2.7594    1.0000 </r>
       <r>    3.2474    1.0000 </r>
       <r>    3.2962    1.0000 </r>
       <r>    3.5598    1.0000 </r>
       <r>    4.4161    1.0000 </r>
       <r>    4.7825    1.0000 </r>
       <r>    5.2004    1.0000 </r>
       <r>    5.2907    1.0000 </r>
       <r>    5.9711    1.0000 </r>
       <r>    6.5021    1.0000 </r>
       <r>    6.9847    1.0000 </r>
       <r>    7.1262    1.0000 </r>
       <r>    7.1436    1.0000 </r>
       <r>    7.6159    1.0000 </r>
       <r>    7.9692    1.0000 </r>
       <r>    8.8997    0.9307 </r>
       <r>    9.0669    0.1630 </r>
       <r>    9.0690    0.1548 </r>
       <r>   14.1405    0.0000 </r>
       <r>   15.1936    0.0000 </r>
      </set>
      <set comment="kpoint 21">
       <r>    0.9716    1.0000 </r>
       <r>    1.4210    1.0000 </r>
       <r>    2.8421    1.0000 </r>
       <r>    2.9010    1.0000 </r>
       <r>    3.0143    1.0000 </r>
       <r>    3.2843    1.0000 </r>
       <r>    3.5470    1.0000 </r>
       <r>    3.6477    1.0000 </r>
       <r>    3.9813    1.0000 </r>
       <r>    4.2417    1.0000 </r>
       <r>    5.0883    1.0000 </r>
       <r>    5.1558    1.0000 </r>
       <r>    6.3265    1.0000 </r>
       <r>    6.7137    1.0000 </r>
       <r>    6.7765    1.0000 </r>
       <r>    6.8325    1.0000 </r>
       <r>    6.8931    1.0000 </r>
       <r>    7.1663    1.0000 </r>
       <r>    8.2451    1.0000 </r>
       <r>    8.5510    0.9960 </r>
       <r>    9.0629    0.1787 </r>
       <r>    9.0630    0.1783 </r>
       <r>   14.5659    0.0000 </r>
       <r>   14.8981    0.0000 </r>
      </set>
      <set comment="kpoint 22">
       <r>   -0.6326    1.0000 </r>
       <r>    1.8878    1.0000 </r>
       <r>    1.9334    1.0000 </r>
       <r>    1.9334    1.0000 </r>
       <r>    2.3604    1.0000 </r>
       <r>    2.3604    1.0000 </r>
       <r>    2.6606    1.0000 </r>
       <r>    4.2027    1.0000 </r>
       <r>    5.2309    1.0000 </r>
       <r>    5.2642    1.0000 </r>
       <r>    5.8782    1.0000 </r>
       <r>    5.8782    1.0000 </r>
       <r>    6.2125    1.0000 </r>
       <r>    6.6251    1.0000 </r>
       <r>    7.4467    1.0000 </r>
       <r>    7.7540    1.0000 </r>
       <r>    8.0910    1.0000 </r>
       <r>    8.0910    1.0000 </r>
       <r>    8.7645    1.0411 </r>
       <r>    8.7645    1.0411 </r>
       <r>    8.9915    0.5286 </r>
       <r>   11.3285    0.0000 </r>
       <r>   11.3285    0.0000 </r>
       <r>   15.1902    0.0000 </r>
      </set>
      <set comment="kpoint 23">
       <r>   -0.2535    1.0000 </r>
       <r>    2.0429    1.0000 </r>
       <r>    2.0736    1.0000 </r>
       <r>    2.2343    1.0000 </r>
       <r>    2.5181    1.0000 </r>
       <r>    2.6290    1.0000 </r>
       <r>    2.9422    1.0000 </r>
       <r>    4.0535    1.0000 </r>
       <r>    5.2283    1.0000 </r>
       <r>    5.2680    1.0000 </r>
       <r>    5.4097    1.0000 </r>
       <r>    5.4377    1.0000 </r>
       <r>    5.7473    1.0000 </r>
       <r>    6.4960    1.0000 </r>
       <r>    7.4671    1.0000 </r>
       <r>    7.6513    1.0000 </r>
       <r>    7.8041    1.0000 </r>
       <r>    7.8171    1.0000 </r>
       <r>    8.3866    0.9998 </r>
       <r>    8.7245    1.0224 </r>
       <r>    8.8612    1.0149 </r>
       <r>   10.5782    0.0000 </r>
       <r>   12.0411    0.0000 </r>
       <r>   15.1925    0.0000 </r>
      </set>
      <set comment="kpoint 24">
       <r>    0.1948    1.0000 </r>
       <r>    2.0778    1.0000 </r>
       <r>    2.3193    1.0000 </r>
       <r>    2.5697    1.0000 </r>
       <r>    2.7061    1.0000 </r>
       <r>    2.9525    1.0000 </r>
       <r>    3.2158    1.0000 </r>
       <r>    3.8553    1.0000 </r>
       <r>    4.6336    1.0000 </r>
       <r>    5.0192    1.0000 </r>
       <r>    5.2399    1.0000 </r>
       <r>    5.2470    1.0000 </r>
       <r>    5.6809    1.0000 </r>
       <r>    6.4239    1.0000 </r>
       <r>    7.1641    1.0000 </r>
       <r>    7.4539    1.0000 </r>
       <r>    7.4692    1.0000 </r>
       <r>    7.9229    1.0000 </r>
       <r>    7.9760    1.0000 </r>
       <r>    8.7014    1.0126 </r>
       <r>    8.7760    1.0457 </r>
       <r>    9.9469    0.0000 </r>
       <r>   12.6773    0.0000 </r>
       <r>   14.7431    0.0000 </r>
      </set>
      <set comment="kpoint 25">
       <r>    0.6891    1.0000 </r>
       <r>    1.9558    1.0000 </r>
       <r>    2.6184    1.0000 </r>
       <r>    2.8970    1.0000 </r>
       <r>    2.9177    1.0000 </r>
       <r>    3.3081    1.0000 </r>
       <r>    3.4232    1.0000 </r>
       <r>    3.6275    1.0000 </r>
       <r>    4.1198    1.0000 </r>
       <r>    4.7291    1.0000 </r>
       <r>    4.8010    1.0000 </r>
       <r>    5.1227    1.0000 </r>
       <r>    5.9763    1.0000 </r>
       <r>    6.5076    1.0000 </r>
       <r>    6.9136    1.0000 </r>
       <r>    7.0585    1.0000 </r>
       <r>    7.1412    1.0000 </r>
       <r>    7.5417    1.0000 </r>
       <r>    8.2400    1.0000 </r>
       <r>    8.6898    1.0084 </r>
       <r>    8.7252    1.0227 </r>
       <r>    9.4261    0.0045 </r>
       <r>   13.2167    0.0000 </r>
       <r>   14.3678    0.0000 </r>
      </set>
      <set comment="kpoint 26">
       <r>    1.1916    1.0000 </r>
       <r>    1.6417    1.0000 </r>
       <r>    2.9399    1.0000 </r>
       <r>    3.0993    1.0000 </r>
       <r>    3.1470    1.0000 </r>
       <r>    3.3870    1.0000 </r>
       <r>    3.5092    1.0000 </r>
       <r>    3.5454    1.0000 </r>
       <r>    3.8885    1.0000 </r>
       <r>    4.2490    1.0000 </r>
       <r>    4.7946    1.0000 </r>
       <r>    4.9377    1.0000 </r>
       <r>    6.3084    1.0000 </r>
       <r>    6.6707    1.0000 </r>
       <r>    6.7561    1.0000 </r>
       <r>    6.8060    1.0000 </r>
       <r>    6.8933    1.0000 </r>
       <r>    7.1190    1.0000 </r>
       <r>    8.5935    0.9951 </r>
       <r>    8.6882    1.0079 </r>
       <r>    8.6985    1.0115 </r>
       <r>    8.9843    0.5664 </r>
       <r>   13.6573    0.0000 </r>
       <r>   14.0247    0.0000 </r>
      </set>
      <set comment="kpoint 27">
       <r>    0.1010    1.0000 </r>
       <r>    2.2125    1.0000 </r>
       <r>    2.3511    1.0000 </r>
       <r>    2.3511    1.0000 </r>
       <r>    2.7730    1.0000 </r>
       <r>    2.7730    1.0000 </r>
       <r>    3.2020    1.0000 </r>
       <r>    3.9815    1.0000 </r>
       <r>    4.8316    1.0000 </r>
       <r>    4.8316    1.0000 </r>
       <r>    5.2357    1.0000 </r>
       <r>    5.4288    1.0000 </r>
       <r>    5.5593    1.0000 </r>
       <r>    6.4037    1.0000 </r>
       <r>    7.2366    1.0000 </r>
       <r>    7.5976    1.0000 </r>
       <r>    7.5976    1.0000 </r>
       <r>    7.9061    1.0000 </r>
       <r>    8.3188    1.0000 </r>
       <r>    8.3188    1.0000 </r>
       <r>    8.6460    0.9983 </r>
       <r>   11.2497    0.0000 </r>
       <r>   11.2497    0.0000 </r>
       <r>   14.5730    0.0000 </r>
      </set>
      <set comment="kpoint 28">
       <r>    0.5199    1.0000 </r>
       <r>    2.3825    1.0000 </r>
       <r>    2.4089    1.0000 </r>
       <r>    2.6978    1.0000 </r>
       <r>    2.9414    1.0000 </r>
       <r>    3.0805    1.0000 </r>
       <r>    3.4398    1.0000 </r>
       <r>    3.8579    1.0000 </r>
       <r>    4.3023    1.0000 </r>
       <r>    4.5370    1.0000 </r>
       <r>    5.0504    1.0000 </r>
       <r>    5.1617    1.0000 </r>
       <r>    5.7516    1.0000 </r>
       <r>    6.3424    1.0000 </r>
       <r>    6.9869    1.0000 </r>
       <r>    7.2908    1.0000 </r>
       <r>    7.3191    1.0000 </r>
       <r>    7.8896    1.0000 </r>
       <r>    8.2389    1.0000 </r>
       <r>    8.2821    1.0000 </r>
       <r>    8.4848    0.9983 </r>
       <r>   10.5711    0.0000 </r>
       <r>   11.8630    0.0000 </r>
       <r>   14.0594    0.0000 </r>
      </set>
      <set comment="kpoint 29">
       <r>    0.9833    1.0000 </r>
       <r>    2.2384    1.0000 </r>
       <r>    2.6633    1.0000 </r>
       <r>    3.0537    1.0000 </r>
       <r>    3.1233    1.0000 </r>
       <r>    3.4009    1.0000 </r>
       <r>    3.5897    1.0000 </r>
       <r>    3.6946    1.0000 </r>
       <r>    3.8535    1.0000 </r>
       <r>    4.4412    1.0000 </r>
       <r>    4.6439    1.0000 </r>
       <r>    5.0005    1.0000 </r>
       <r>    5.9962    1.0000 </r>
       <r>    6.4200    1.0000 </r>
       <r>    6.7814    1.0000 </r>
       <r>    6.9375    1.0000 </r>
       <r>    7.0313    1.0000 </r>
       <r>    7.4510    1.0000 </r>
       <r>    8.2691    1.0000 </r>
       <r>    8.3761    0.9998 </r>
       <r>    8.6210    0.9958 </r>
       <r>    9.9948    0.0000 </r>
       <r>   12.3995    0.0000 </r>
       <r>   13.6360    0.0000 </r>
      </set>
      <set comment="kpoint 30">
       <r>    1.4611    1.0000 </r>
       <r>    1.9050    1.0000 </r>
       <r>    2.9733    1.0000 </r>
       <r>    3.3141    1.0000 </r>
       <r>    3.3222    1.0000 </r>
       <r>    3.3734    1.0000 </r>
       <r>    3.5083    1.0000 </r>
       <r>    3.5749    1.0000 </r>
       <r>    3.8781    1.0000 </r>
       <r>    4.2429    1.0000 </r>
       <r>    4.5507    1.0000 </r>
       <r>    4.7710    1.0000 </r>
       <r>    6.2741    1.0000 </r>
       <r>    6.5888    1.0000 </r>
       <r>    6.6661    1.0000 </r>
       <r>    6.7050    1.0000 </r>
       <r>    6.8014    1.0000 </r>
       <r>    7.0294    1.0000 </r>
       <r>    8.2774    1.0000 </r>
       <r>    8.3104    1.0000 </r>
       <r>    9.0390    0.2851 </r>
       <r>    9.4926    0.0022 </r>
       <r>   12.8563    0.0000 </r>
       <r>   13.2537    0.0000 </r>
      </set>
      <set comment="kpoint 31">
       <r>    0.9016    1.0000 </r>
       <r>    2.5421    1.0000 </r>
       <r>    2.7148    1.0000 </r>
       <r>    2.7148    1.0000 </r>
       <r>    3.2289    1.0000 </r>
       <r>    3.2289    1.0000 </r>
       <r>    3.6431    1.0000 </r>
       <r>    3.8218    1.0000 </r>
       <r>    4.1061    1.0000 </r>
       <r>    4.1061    1.0000 </r>
       <r>    4.8059    1.0000 </r>
       <r>    5.0661    1.0000 </r>
       <r>    5.8681    1.0000 </r>
       <r>    6.2769    1.0000 </r>
       <r>    6.7785    1.0000 </r>
       <r>    7.0633    1.0000 </r>
       <r>    7.0633    1.0000 </r>
       <r>    7.8433    1.0000 </r>
       <r>    7.8433    1.0000 </r>
       <r>    8.2417    1.0000 </r>
       <r>    8.6302    0.9965 </r>
       <r>   11.1617    0.0000 </r>
       <r>   11.1617    0.0000 </r>
       <r>   13.4935    0.0000 </r>
      </set>
      <set comment="kpoint 32">
       <r>    1.3222    1.0000 </r>
       <r>    2.5292    1.0000 </r>
       <r>    2.7190    1.0000 </r>
       <r>    3.0170    1.0000 </r>
       <r>    3.3696    1.0000 </r>
       <r>    3.5528    1.0000 </r>
       <r>    3.7440    1.0000 </r>
       <r>    3.7623    1.0000 </r>
       <r>    3.7639    1.0000 </r>
       <r>    4.1521    1.0000 </r>
       <r>    4.5217    1.0000 </r>
       <r>    4.9028    1.0000 </r>
       <r>    6.0052    1.0000 </r>
       <r>    6.3642    1.0000 </r>
       <r>    6.5979    1.0000 </r>
       <r>    6.7507    1.0000 </r>
       <r>    6.8157    1.0000 </r>
       <r>    7.4042    1.0000 </r>
       <r>    7.8358    1.0000 </r>
       <r>    8.0590    1.0000 </r>
       <r>    9.0655    0.1686 </r>
       <r>   10.5582    0.0000 </r>
       <r>   11.6975    0.0000 </r>
       <r>   13.0244    0.0000 </r>
      </set>
      <set comment="kpoint 33">
       <r>    1.7589    1.0000 </r>
       <r>    2.1797    1.0000 </r>
       <r>    2.9308    1.0000 </r>
       <r>    3.1122    1.0000 </r>
       <r>    3.5044    1.0000 </r>
       <r>    3.6308    1.0000 </r>
       <r>    3.6335    1.0000 </r>
       <r>    3.7407    1.0000 </r>
       <r>    3.8992    1.0000 </r>
       <r>    4.2183    1.0000 </r>
       <r>    4.3774    1.0000 </r>
       <r>    4.6563    1.0000 </r>
       <r>    6.1849    1.0000 </r>
       <r>    6.4412    1.0000 </r>
       <r>    6.5281    1.0000 </r>
       <r>    6.6132    1.0000 </r>
       <r>    6.6256    1.0000 </r>
       <r>    6.9879    1.0000 </r>
       <r>    7.8651    1.0000 </r>
       <r>    7.9363    1.0000 </r>
       <r>    9.5300    0.0012 </r>
       <r>   10.0231    0.0000 </r>
       <r>   12.1727    0.0000 </r>
       <r>   12.6022    0.0000 </r>
      </set>
      <set comment="kpoint 34">
       <r>    1.6879    1.0000 </r>
       <r>    2.7641    1.0000 </r>
       <r>    2.7641    1.0000 </r>
       <r>    2.7872    1.0000 </r>
       <r>    3.6384    1.0000 </r>
       <r>    3.6384    1.0000 </r>
       <r>    3.7622    1.0000 </r>
       <r>    3.8914    1.0000 </r>
       <r>    3.9744    1.0000 </r>
       <r>    3.9744    1.0000 </r>
       <r>    4.3647    1.0000 </r>
       <r>    4.7761    1.0000 </r>
       <r>    5.9927    1.0000 </r>
       <r>    6.4154    1.0000 </r>
       <r>    6.4650    1.0000 </r>
       <r>    6.5380    1.0000 </r>
       <r>    6.5380    1.0000 </r>
       <r>    7.4135    1.0000 </r>
       <r>    7.4135    1.0000 </r>
       <r>    7.7976    1.0000 </r>
       <r>    9.5420    0.0010 </r>
       <r>   11.0913    0.0000 </r>
       <r>   11.0913    0.0000 </r>
       <r>   12.5108    0.0000 </r>
      </set>
      <set comment="kpoint 35">
       <r>    2.0619    1.0000 </r>
       <r>    2.4275    1.0000 </r>
       <r>    2.8538    1.0000 </r>
       <r>    2.8709    1.0000 </r>
       <r>    3.6988    1.0000 </r>
       <r>    3.7448    1.0000 </r>
       <r>    3.8503    1.0000 </r>
       <r>    3.9171    1.0000 </r>
       <r>    3.9876    1.0000 </r>
       <r>    4.1807    1.0000 </r>
       <r>    4.2806    1.0000 </r>
       <r>    4.5661    1.0000 </r>
       <r>    6.0669    1.0000 </r>
       <r>    6.2651    1.0000 </r>
       <r>    6.3199    1.0000 </r>
       <r>    6.3698    1.0000 </r>
       <r>    6.7004    1.0000 </r>
       <r>    7.0261    1.0000 </r>
       <r>    7.4782    1.0000 </r>
       <r>    7.6039    1.0000 </r>
       <r>   10.0359    0.0000 </r>
       <r>   10.5472    0.0000 </r>
       <r>   11.5845    0.0000 </r>
       <r>   12.0472    0.0000 </r>
      </set>
      <set comment="kpoint 36">
       <r>    2.3513    1.0000 </r>
       <r>    2.6196    1.0000 </r>
       <r>    2.6196    1.0000 </r>
       <r>    2.7551    1.0000 </r>
       <r>    3.8257    1.0000 </r>
       <r>    3.8672    1.0000 </r>
       <r>    3.8672    1.0000 </r>
       <r>    3.9701    1.0000 </r>
       <r>    4.1874    1.0000 </r>
       <r>    4.2347    1.0000 </r>
       <r>    4.2347    1.0000 </r>
       <r>    4.4405    1.0000 </r>
       <r>    6.0335    1.0000 </r>
       <r>    6.1477    1.0000 </r>
       <r>    6.1477    1.0000 </r>
       <r>    6.1660    1.0000 </r>
       <r>    6.8772    1.0000 </r>
       <r>    7.1415    1.0000 </r>
       <r>    7.1415    1.0000 </r>
       <r>    7.3349    1.0000 </r>
       <r>   10.5430    0.0000 </r>
       <r>   11.0528    0.0000 </r>
       <r>   11.0528    0.0000 </r>
       <r>   11.5446    0.0000 </r>
      </set>
      <set comment="kpoint 37">
       <r>   -1.5580    1.0000 </r>
       <r>    1.3929    1.0000 </r>
       <r>    1.3929    1.0000 </r>
       <r>    1.3929    1.0000 </r>
       <r>    1.8723    1.0000 </r>
       <r>    1.8723    1.0000 </r>
       <r>    1.8723    1.0000 </r>
       <r>    4.6033    1.0000 </r>
       <r>    4.9167    1.0000 </r>
       <r>    4.9167    1.0000 </r>
       <r>    7.0985    1.0000 </r>
       <r>    7.0985    1.0000 </r>
       <r>    7.9524    1.0000 </r>
       <r>    7.9524    1.0000 </r>
       <r>    7.9524    1.0000 </r>
       <r>    8.5916    0.9951 </r>
       <r>    8.5916    0.9951 </r>
       <r>    8.5916    0.9951 </r>
       <r>    9.3921    0.0049 </r>
       <r>    9.3921    0.0049 </r>
       <r>    9.3921    0.0049 </r>
       <r>   11.7452    0.0000 </r>
       <r>   11.7452    0.0000 </r>
       <r>   11.7452    0.0000 </r>
      </set>
      <set comment="kpoint 38">
       <r>   -1.3440    1.0000 </r>
       <r>    1.4812    1.0000 </r>
       <r>    1.5339    1.0000 </r>
       <r>    1.5339    1.0000 </r>
       <r>    1.9637    1.0000 </r>
       <r>    2.0326    1.0000 </r>
       <r>    2.0326    1.0000 </r>
       <r>    4.4973    1.0000 </r>
       <r>    4.9992    1.0000 </r>
       <r>    5.0142    1.0000 </r>
       <r>    6.9483    1.0000 </r>
       <r>    7.1818    1.0000 </r>
       <r>    7.3258    1.0000 </r>
       <r>    7.3258    1.0000 </r>
       <r>    7.5261    1.0000 </r>
       <r>    8.3635    0.9999 </r>
       <r>    8.3764    0.9998 </r>
       <r>    8.3764    0.9998 </r>
       <r>    9.2945   -0.0118 </r>
       <r>    9.3536    0.0025 </r>
       <r>    9.3536    0.0025 </r>
       <r>   10.9835    0.0000 </r>
       <r>   12.4814    0.0000 </r>
       <r>   12.4814    0.0000 </r>
      </set>
      <set comment="kpoint 39">
       <r>   -1.0305    1.0000 </r>
       <r>    1.5914    1.0000 </r>
       <r>    1.7388    1.0000 </r>
       <r>    1.7388    1.0000 </r>
       <r>    2.0986    1.0000 </r>
       <r>    2.2651    1.0000 </r>
       <r>    2.2651    1.0000 </r>
       <r>    4.3190    1.0000 </r>
       <r>    5.1441    1.0000 </r>
       <r>    5.1598    1.0000 </r>
       <r>    6.6288    1.0000 </r>
       <r>    6.6288    1.0000 </r>
       <r>    6.7486    1.0000 </r>
       <r>    6.9669    1.0000 </r>
       <r>    7.3034    1.0000 </r>
       <r>    8.0556    1.0000 </r>
       <r>    8.1025    1.0000 </r>
       <r>    8.1025    1.0000 </r>
       <r>    9.1536   -0.0387 </r>
       <r>    9.3062   -0.0078 </r>
       <r>    9.3062   -0.0078 </r>
       <r>   10.1572    0.0000 </r>
       <r>   13.2834    0.0000 </r>
       <r>   13.2834    0.0000 </r>
      </set>
      <set comment="kpoint 40">
       <r>   -0.6279    1.0000 </r>
       <r>    1.6906    1.0000 </r>
       <r>    1.9995    1.0000 </r>
       <r>    1.9995    1.0000 </r>
       <r>    2.2736    1.0000 </r>
       <r>    2.5570    1.0000 </r>
       <r>    2.5570    1.0000 </r>
       <r>    4.0893    1.0000 </r>
       <r>    5.3164    1.0000 </r>
       <r>    5.3526    1.0000 </r>
       <r>    5.9377    1.0000 </r>
       <r>    5.9377    1.0000 </r>
       <r>    6.3581    1.0000 </r>
       <r>    6.5449    1.0000 </r>
       <r>    7.4595    1.0000 </r>
       <r>    7.6962    1.0000 </r>
       <r>    7.7575    1.0000 </r>
       <r>    7.7575    1.0000 </r>
       <r>    8.9764    0.6079 </r>
       <r>    9.2690   -0.0226 </r>
       <r>    9.2690   -0.0226 </r>
       <r>    9.3606    0.0032 </r>
       <r>   14.0714    0.0000 </r>
       <r>   14.0714    0.0000 </r>
      </set>
      <set comment="kpoint 41">
       <r>   -0.1531    1.0000 </r>
       <r>    1.7238    1.0000 </r>
       <r>    2.3000    1.0000 </r>
       <r>    2.3000    1.0000 </r>
       <r>    2.4836    1.0000 </r>
       <r>    2.8873    1.0000 </r>
       <r>    2.8873    1.0000 </r>
       <r>    3.8265    1.0000 </r>
       <r>    5.2839    1.0000 </r>
       <r>    5.2839    1.0000 </r>
       <r>    5.4343    1.0000 </r>
       <r>    5.5910    1.0000 </r>
       <r>    5.8024    1.0000 </r>
       <r>    6.4415    1.0000 </r>
       <r>    7.3114    1.0000 </r>
       <r>    7.3803    1.0000 </r>
       <r>    7.3803    1.0000 </r>
       <r>    7.6451    1.0000 </r>
       <r>    8.6298    0.9964 </r>
       <r>    8.7711    1.0439 </r>
       <r>    9.2447   -0.0341 </r>
       <r>    9.2447   -0.0341 </r>
       <r>   14.7740    0.0000 </r>
       <r>   14.7740    0.0000 </r>
      </set>
      <set comment="kpoint 42">
       <r>    0.3659    1.0000 </r>
       <r>    1.6181    1.0000 </r>
       <r>    2.6024    1.0000 </r>
       <r>    2.6024    1.0000 </r>
       <r>    2.7223    1.0000 </r>
       <r>    3.2296    1.0000 </r>
       <r>    3.2296    1.0000 </r>
       <r>    3.5461    1.0000 </r>
       <r>    4.6917    1.0000 </r>
       <r>    4.6917    1.0000 </r>
       <r>    5.3969    1.0000 </r>
       <r>    5.4097    1.0000 </r>
       <r>    5.8723    1.0000 </r>
       <r>    6.5760    1.0000 </r>
       <r>    6.9223    1.0000 </r>
       <r>    7.0414    1.0000 </r>
       <r>    7.0414    1.0000 </r>
       <r>    7.8542    1.0000 </r>
       <r>    7.9759    1.0000 </r>
       <r>    8.5470    0.9961 </r>
       <r>    9.2309   -0.0405 </r>
       <r>    9.2309   -0.0405 </r>
       <r>   15.2963    0.0000 </r>
       <r>   15.2963    0.0000 </r>
      </set>
      <set comment="kpoint 43">
       <r>    0.8830    1.0000 </r>
       <r>    1.3273    1.0000 </r>
       <r>    2.8153    1.0000 </r>
       <r>    2.8153    1.0000 </r>
       <r>    2.9839    1.0000 </r>
       <r>    3.2615    1.0000 </r>
       <r>    3.5501    1.0000 </r>
       <r>    3.5501    1.0000 </r>
       <r>    4.2171    1.0000 </r>
       <r>    4.2171    1.0000 </r>
       <r>    5.2466    1.0000 </r>
       <r>    5.2806    1.0000 </r>
       <r>    6.1924    1.0000 </r>
       <r>    6.5453    1.0000 </r>
       <r>    6.8331    1.0000 </r>
       <r>    6.8331    1.0000 </r>
       <r>    6.9254    1.0000 </r>
       <r>    7.4040    1.0000 </r>
       <r>    8.0796    1.0000 </r>
       <r>    8.3134    1.0000 </r>
       <r>    9.2247   -0.0431 </r>
       <r>    9.2247   -0.0431 </r>
       <r>   15.5523    0.0000 </r>
       <r>   15.5523    0.0000 </r>
      </set>
      <set comment="kpoint 44">
       <r>   -1.1381    1.0000 </r>
       <r>    1.6206    1.0000 </r>
       <r>    1.6206    1.0000 </r>
       <r>    1.6382    1.0000 </r>
       <r>    2.1235    1.0000 </r>
       <r>    2.1235    1.0000 </r>
       <r>    2.2120    1.0000 </r>
       <r>    4.4348    1.0000 </r>
       <r>    5.0537    1.0000 </r>
       <r>    5.0796    1.0000 </r>
       <r>    6.9257    1.0000 </r>
       <r>    6.9257    1.0000 </r>
       <r>    6.9258    1.0000 </r>
       <r>    6.9365    1.0000 </r>
       <r>    7.1733    1.0000 </r>
       <r>    8.1105    1.0000 </r>
       <r>    8.1599    1.0000 </r>
       <r>    8.1599    1.0000 </r>
       <r>    9.2735   -0.0205 </r>
       <r>    9.2735   -0.0205 </r>
       <r>    9.2895   -0.0137 </r>
       <r>   11.6708    0.0000 </r>
       <r>   11.6708    0.0000 </r>
       <r>   13.0926    0.0000 </r>
      </set>
      <set comment="kpoint 45">
       <r>   -0.8364    1.0000 </r>
       <r>    1.7281    1.0000 </r>
       <r>    1.8016    1.0000 </r>
       <r>    1.8235    1.0000 </r>
       <r>    2.2578    1.0000 </r>
       <r>    2.3549    1.0000 </r>
       <r>    2.4586    1.0000 </r>
       <r>    4.3009    1.0000 </r>
       <r>    5.1668    1.0000 </r>
       <r>    5.1831    1.0000 </r>
       <r>    6.2596    1.0000 </r>
       <r>    6.4042    1.0000 </r>
       <r>    6.4215    1.0000 </r>
       <r>    6.7837    1.0000 </r>
       <r>    7.2926    1.0000 </r>
       <r>    7.8462    1.0000 </r>
       <r>    7.8556    1.0000 </r>
       <r>    7.9485    1.0000 </r>
       <r>    9.1432   -0.0286 </r>
       <r>    9.1963   -0.0512 </r>
       <r>    9.2027   -0.0501 </r>
       <r>   10.8009    0.0000 </r>
       <r>   12.4148    0.0000 </r>
       <r>   13.8059    0.0000 </r>
      </set>
      <set comment="kpoint 46">
       <r>   -0.4491    1.0000 </r>
       <r>    1.8232    1.0000 </r>
       <r>    2.0244    1.0000 </r>
       <r>    2.0827    1.0000 </r>
       <r>    2.4314    1.0000 </r>
       <r>    2.6433    1.0000 </r>
       <r>    2.7488    1.0000 </r>
       <r>    4.1073    1.0000 </r>
       <r>    5.2827    1.0000 </r>
       <r>    5.3461    1.0000 </r>
       <r>    5.6076    1.0000 </r>
       <r>    5.8191    1.0000 </r>
       <r>    5.8886    1.0000 </r>
       <r>    6.6311    1.0000 </r>
       <r>    7.4776    1.0000 </r>
       <r>    7.5008    1.0000 </r>
       <r>    7.5544    1.0000 </r>
       <r>    7.6772    1.0000 </r>
       <r>    8.9424    0.7724 </r>
       <r>    9.1164    0.0137 </r>
       <r>    9.1192    0.0081 </r>
       <r>    9.9817    0.0000 </r>
       <r>   13.1374    0.0000 </r>
       <r>   14.5292    0.0000 </r>
      </set>
      <set comment="kpoint 47">
       <r>    0.0078    1.0000 </r>
       <r>    1.8516    1.0000 </r>
       <r>    2.3012    1.0000 </r>
       <r>    2.3860    1.0000 </r>
       <r>    2.6361    1.0000 </r>
       <r>    2.9608    1.0000 </r>
       <r>    3.0462    1.0000 </r>
       <r>    3.8748    1.0000 </r>
       <r>    5.0057    1.0000 </r>
       <r>    5.2425    1.0000 </r>
       <r>    5.3270    1.0000 </r>
       <r>    5.4176    1.0000 </r>
       <r>    5.5571    1.0000 </r>
       <r>    6.5896    1.0000 </r>
       <r>    7.1277    1.0000 </r>
       <r>    7.2389    1.0000 </r>
       <r>    7.3585    1.0000 </r>
       <r>    7.7020    1.0000 </r>
       <r>    8.6237    0.9960 </r>
       <r>    9.0556    0.2093 </r>
       <r>    9.0558    0.2088 </r>
       <r>    9.3053   -0.0080 </r>
       <r>   13.7882    0.0000 </r>
       <r>   15.1429    0.0000 </r>
      </set>
      <set comment="kpoint 48">
       <r>    0.5084    1.0000 </r>
       <r>    1.7407    1.0000 </r>
       <r>    2.6144    1.0000 </r>
       <r>    2.7048    1.0000 </r>
       <r>    2.8629    1.0000 </r>
       <r>    3.2539    1.0000 </r>
       <r>    3.2920    1.0000 </r>
       <r>    3.6215    1.0000 </r>
       <r>    4.4984    1.0000 </r>
       <r>    4.7220    1.0000 </r>
       <r>    5.1087    1.0000 </r>
       <r>    5.2437    1.0000 </r>
       <r>    5.8047    1.0000 </r>
       <r>    6.7589    1.0000 </r>
       <r>    6.7591    1.0000 </r>
       <r>    6.9557    1.0000 </r>
       <r>    7.0479    1.0000 </r>
       <r>    7.9545    1.0000 </r>
       <r>    8.1384    1.0000 </r>
       <r>    8.8474    1.0321 </r>
       <r>    9.0163    0.3984 </r>
       <r>    9.0173    0.3930 </r>
       <r>   14.3297    0.0000 </r>
       <r>   15.2905    0.0000 </r>
      </set>
      <set comment="kpoint 49">
       <r>    1.0105    1.0000 </r>
       <r>    1.4478    1.0000 </r>
       <r>    2.8996    1.0000 </r>
       <r>    2.9477    1.0000 </r>
       <r>    3.1062    1.0000 </r>
       <r>    3.3616    1.0000 </r>
       <r>    3.4152    1.0000 </r>
       <r>    3.4182    1.0000 </r>
       <r>    4.2134    1.0000 </r>
       <r>    4.3283    1.0000 </r>
       <r>    5.0166    1.0000 </r>
       <r>    5.0981    1.0000 </r>
       <r>    6.0895    1.0000 </r>
       <r>    6.4095    1.0000 </r>
       <r>    6.7961    1.0000 </r>
       <r>    6.8321    1.0000 </r>
       <r>    7.1175    1.0000 </r>
       <r>    7.5977    1.0000 </r>
       <r>    8.2273    1.0000 </r>
       <r>    8.5183    0.9972 </r>
       <r>    8.9983    0.4928 </r>
       <r>    8.9988    0.4898 </r>
       <r>   14.7487    0.0000 </r>
       <r>   15.0662    0.0000 </r>
      </set>
      <set comment="kpoint 50">
       <r>   -0.5524    1.0000 </r>
       <r>    1.9186    1.0000 </r>
       <r>    1.9263    1.0000 </r>
       <r>    1.9263    1.0000 </r>
       <r>    2.4888    1.0000 </r>
       <r>    2.4888    1.0000 </r>
       <r>    2.7093    1.0000 </r>
       <r>    4.2334    1.0000 </r>
       <r>    5.2203    1.0000 </r>
       <r>    5.2402    1.0000 </r>
       <r>    5.8130    1.0000 </r>
       <r>    5.8130    1.0000 </r>
       <r>    6.0570    1.0000 </r>
       <r>    6.7355    1.0000 </r>
       <r>    7.3932    1.0000 </r>
       <r>    7.5734    1.0000 </r>
       <r>    7.6869    1.0000 </r>
       <r>    7.6869    1.0000 </r>
       <r>    9.0420    0.2707 </r>
       <r>    9.0420    0.2707 </r>
       <r>    9.0780    0.1215 </r>
       <r>   11.5066    0.0000 </r>
       <r>   11.5066    0.0000 </r>
       <r>   14.4395    0.0000 </r>
      </set>
      <set comment="kpoint 51">
       <r>   -0.1882    1.0000 </r>
       <r>    2.0132    1.0000 </r>
       <r>    2.0948    1.0000 </r>
       <r>    2.1792    1.0000 </r>
       <r>    2.6622    1.0000 </r>
       <r>    2.7758    1.0000 </r>
       <r>    2.9868    1.0000 </r>
       <r>    4.1052    1.0000 </r>
       <r>    5.2204    1.0000 </r>
       <r>    5.2543    1.0000 </r>
       <r>    5.3596    1.0000 </r>
       <r>    5.3705    1.0000 </r>
       <r>    5.6243    1.0000 </r>
       <r>    6.6458    1.0000 </r>
       <r>    7.3047    1.0000 </r>
       <r>    7.3540    1.0000 </r>
       <r>    7.4838    1.0000 </r>
       <r>    7.6052    1.0000 </r>
       <r>    8.8173    1.0503 </r>
[...]
       <r>    9.6427    0.0001 </r>
       <r>   10.1999    0.0000 </r>
       <r>   10.1999    0.0000 </r>
       <r>   10.6577    0.0000 </r>
      </set>
      <set comment="kpoint 117">
       <r>    0.9677    1.0000 </r>
       <r>    1.2604    1.0000 </r>
       <r>    1.2604    1.0000 </r>
       <r>    1.2604    1.0000 </r>
       <r>    4.4461    1.0000 </r>
       <r>    4.4461    1.0000 </r>
       <r>    4.4461    1.0000 </r>
       <r>    4.7944    1.0000 </r>
       <r>    4.7944    1.0000 </r>
       <r>    4.9706    1.0000 </r>
       <r>    4.9706    1.0000 </r>
       <r>    4.9706    1.0000 </r>
       <r>    6.7321    1.0000 </r>
       <r>    6.7321    1.0000 </r>
       <r>    6.7321    1.0000 </r>
       <r>    6.9415    1.0000 </r>
       <r>    8.6919    1.0092 </r>
       <r>    8.6919    1.0092 </r>
       <r>    9.0724    0.1419 </r>
       <r>    9.0724    0.1419 </r>
       <r>    9.0724    0.1419 </r>
       <r>   10.5392    0.0000 </r>
       <r>   10.5392    0.0000 </r>
       <r>   10.5392    0.0000 </r>
      </set>
      <set comment="kpoint 118">
       <r>    1.0040    1.0000 </r>
       <r>    1.1022    1.0000 </r>
       <r>    1.1963    1.0000 </r>
       <r>    1.1963    1.0000 </r>
       <r>    4.4933    1.0000 </r>
       <r>    4.4933    1.0000 </r>
       <r>    4.5997    1.0000 </r>
       <r>    4.7183    1.0000 </r>
       <r>    4.7922    1.0000 </r>
       <r>    4.8515    1.0000 </r>
       <r>    4.8945    1.0000 </r>
       <r>    4.8945    1.0000 </r>
       <r>    7.0479    1.0000 </r>
       <r>    7.0506    1.0000 </r>
       <r>    7.0506    1.0000 </r>
       <r>    7.1933    1.0000 </r>
       <r>    8.9143    0.8841 </r>
       <r>    8.9621    0.6797 </r>
       <r>    9.0174    0.3927 </r>
       <r>    9.0174    0.3927 </r>
       <r>    9.0443    0.2600 </r>
       <r>    9.6600    0.0001 </r>
       <r>   10.4891    0.0000 </r>
       <r>   10.4891    0.0000 </r>
      </set>
      <set comment="kpoint 119">
       <r>    1.0016    1.0000 </r>
       <r>    1.0661    1.0000 </r>
       <r>    1.0661    1.0000 </r>
       <r>    1.0976    1.0000 </r>
       <r>    4.5806    1.0000 </r>
       <r>    4.6166    1.0000 </r>
       <r>    4.6166    1.0000 </r>
       <r>    4.7021    1.0000 </r>
       <r>    4.7460    1.0000 </r>
       <r>    4.7894    1.0000 </r>
       <r>    4.7894    1.0000 </r>
       <r>    4.8037    1.0000 </r>
       <r>    7.4162    1.0000 </r>
       <r>    7.4382    1.0000 </r>
       <r>    7.4382    1.0000 </r>
       <r>    7.5691    1.0000 </r>
       <r>    8.8587    1.0185 </r>
       <r>    8.9840    0.5679 </r>
       <r>    8.9840    0.5679 </r>
       <r>    8.9900    0.5368 </r>
       <r>    9.2662   -0.0239 </r>
       <r>    9.7804    0.0000 </r>
       <r>    9.7804    0.0000 </r>
       <r>   10.0755    0.0000 </r>
      </set>
      <set comment="kpoint 120">
       <r>    0.9632    1.0000 </r>
       <r>    0.9954    1.0000 </r>
       <r>    0.9954    1.0000 </r>
       <r>    0.9954    1.0000 </r>
       <r>    4.6620    1.0000 </r>
       <r>    4.6620    1.0000 </r>
       <r>    4.6620    1.0000 </r>
       <r>    4.7033    1.0000 </r>
       <r>    4.7033    1.0000 </r>
       <r>    4.7227    1.0000 </r>
       <r>    4.7227    1.0000 </r>
       <r>    4.7227    1.0000 </r>
       <r>    7.9437    1.0000 </r>
       <r>    7.9437    1.0000 </r>
       <r>    7.9437    1.0000 </r>
       <r>    8.1253    1.0000 </r>
       <r>    9.0069    0.4472 </r>
       <r>    9.0069    0.4472 </r>
       <r>    9.0518    0.2259 </r>
       <r>    9.0518    0.2259 </r>
       <r>    9.0518    0.2259 </r>
       <r>    9.4164    0.0048 </r>
       <r>    9.4164    0.0048 </r>
       <r>    9.4164    0.0048 </r>
      </set>
     </set>
    </set>
   </array>
  </eigenvalues>
  <separator name="orbital magnetization" >
   <v name="MAGDIPOLOUT">      0.00000000      0.00000000      0.00000000</v>
  </separator>
  <dos>
   <i name="efermi">      8.99691560 </i>
   <total>
    <array>
     <dimension dim="1">gridpoints</dimension>
     <dimension dim="2">spin</dimension>
     <field>energy</field>
     <field>total</field>
     <field>integrated</field>
     <set>
      <set comment="spin 1">
       <r>    -3.8888     0.0000     0.0000 </r>
       <r>    -3.8146     0.0000     0.0000 </r>
       <r>    -3.7403     0.0000     0.0000 </r>
       <r>    -3.6661     0.0000     0.0000 </r>
       <r>    -3.5918     0.0000     0.0000 </r>
       <r>    -3.5175     0.0000     0.0000 </r>
       <r>    -3.4433     0.0000     0.0000 </r>
       <r>    -3.3690     0.0000     0.0000 </r>
       <r>    -3.2948     0.0000     0.0000 </r>
       <r>    -3.2205     0.0000     0.0000 </r>
       <r>    -3.1463     0.0000     0.0000 </r>
       <r>    -3.0720     0.0000     0.0000 </r>
       <r>    -2.9977     0.0000     0.0000 </r>
       <r>    -2.9235     0.0000     0.0000 </r>
       <r>    -2.8492     0.0000     0.0000 </r>
       <r>    -2.7750     0.0000     0.0000 </r>
       <r>    -2.7007     0.0000     0.0000 </r>
       <r>    -2.6264     0.0000     0.0000 </r>
       <r>    -2.5522     0.0000     0.0000 </r>
       <r>    -2.4779     0.0000     0.0000 </r>
       <r>    -2.4037     0.0001     0.0000 </r>
       <r>    -2.3294     0.0002     0.0000 </r>
       <r>    -2.2552     0.0003     0.0001 </r>
       <r>    -2.1809    -0.0003     0.0000 </r>
       <r>    -2.1066    -0.0023    -0.0001 </r>
       <r>    -2.0324    -0.0029    -0.0004 </r>
       <r>    -1.9581     0.0050     0.0000 </r>
       <r>    -1.8839     0.0278     0.0021 </r>
       <r>    -1.8096     0.0610     0.0066 </r>
       <r>    -1.7354     0.0901     0.0133 </r>
       <r>    -1.6611     0.1094     0.0214 </r>
       <r>    -1.5868     0.1307     0.0311 </r>
       <r>    -1.5126     0.1584     0.0429 </r>
       <r>    -1.4383     0.1724     0.0557 </r>
       <r>    -1.3641     0.1641     0.0679 </r>
       <r>    -1.2898     0.1688     0.0804 </r>
       <r>    -1.2156     0.2130     0.0962 </r>
       <r>    -1.1413     0.2553     0.1152 </r>
       <r>    -1.0670     0.2468     0.1335 </r>
       <r>    -0.9928     0.2187     0.1498 </r>
       <r>    -0.9185     0.2299     0.1668 </r>
       <r>    -0.8443     0.2701     0.1869 </r>
       <r>    -0.7700     0.2982     0.2090 </r>
       <r>    -0.6958     0.3171     0.2326 </r>
       <r>    -0.6215     0.3415     0.2579 </r>
       <r>    -0.5472     0.3489     0.2838 </r>
       <r>    -0.4730     0.3180     0.3075 </r>
       <r>    -0.3987     0.2871     0.3288 </r>
       <r>    -0.3245     0.3271     0.3531 </r>
       <r>    -0.2502     0.4315     0.3851 </r>
       <r>    -0.1760     0.5009     0.4223 </r>
       <r>    -0.1017     0.4775     0.4578 </r>
       <r>    -0.0274     0.4045     0.4878 </r>
       <r>     0.0468     0.3635     0.5148 </r>
       <r>     0.1211     0.4194     0.5459 </r>
       <r>     0.1953     0.5448     0.5864 </r>
       <r>     0.2696     0.6133     0.6319 </r>
       <r>     0.3438     0.5731     0.6745 </r>
       <r>     0.4181     0.5404     0.7146 </r>
       <r>     0.4924     0.6109     0.7600 </r>
       <r>     0.5666     0.7023     0.8121 </r>
       <r>     0.6409     0.7075     0.8647 </r>
       <r>     0.7151     0.6673     0.9142 </r>
       <r>     0.7894     0.7124     0.9671 </r>
       <r>     0.8636     0.9461     1.0374 </r>
       <r>     0.9379     1.3209     1.1355 </r>
       <r>     1.0122     1.6285     1.2564 </r>
       <r>     1.0864     1.8067     1.3906 </r>
       <r>     1.1607     2.0442     1.5424 </r>
       <r>     1.2349     2.3805     1.7191 </r>
       <r>     1.3092     2.6348     1.9148 </r>
       <r>     1.3834     2.7852     2.1216 </r>
       <r>     1.4577     2.9868     2.3434 </r>
       <r>     1.5320     3.3178     2.5898 </r>
       <r>     1.6062     3.7088     2.8652 </r>
       <r>     1.6805     4.0631     3.1669 </r>
       <r>     1.7547     4.3999     3.4936 </r>
       <r>     1.8290     4.7538     3.8466 </r>
       <r>     1.9032     5.0923     4.2248 </r>
       <r>     1.9775     5.4259     4.6277 </r>
       <r>     2.0518     5.6654     5.0484 </r>
       <r>     2.1260     5.6057     5.4646 </r>
       <r>     2.2003     5.3580     5.8625 </r>
       <r>     2.2745     5.2562     6.2528 </r>
       <r>     2.3488     5.2362     6.6416 </r>
       <r>     2.4230     4.9986     7.0128 </r>
       <r>     2.4973     4.6910     7.3612 </r>
       <r>     2.5716     4.6868     7.7092 </r>
       <r>     2.6458     4.8633     8.0703 </r>
       <r>     2.7201     4.8146     8.4279 </r>
       <r>     2.7943     4.5635     8.7667 </r>
       <r>     2.8686     4.3725     9.0914 </r>
       <r>     2.9429     4.1255     9.3978 </r>
       <r>     3.0171     3.5897     9.6643 </r>
       <r>     3.0914     3.0492     9.8908 </r>
       <r>     3.1656     3.0461    10.1170 </r>
       <r>     3.2399     3.6057    10.3847 </r>
       <r>     3.3141     4.2019    10.6967 </r>
       <r>     3.3884     4.4789    11.0293 </r>
       <r>     3.4627     4.5637    11.3682 </r>
       <r>     3.5369     4.6825    11.7159 </r>
       <r>     3.6112     4.8857    12.0787 </r>
       <r>     3.6854     5.0579    12.4543 </r>
       <r>     3.7597     5.0645    12.8304 </r>
       <r>     3.8339     4.9619    13.1988 </r>
       <r>     3.9082     4.8747    13.5608 </r>
       <r>     3.9825     4.8074    13.9178 </r>
       <r>     4.0567     4.8080    14.2749 </r>
       <r>     4.1310     5.0410    14.6492 </r>
       <r>     4.2052     5.4712    15.0555 </r>
       <r>     4.2795     5.6909    15.4781 </r>
       <r>     4.3537     5.4799    15.8850 </r>
       <r>     4.4280     5.2335    16.2736 </r>
       <r>     4.5023     5.2928    16.6666 </r>
       <r>     4.5765     5.5041    17.0754 </r>
       <r>     4.6508     5.8255    17.5079 </r>
       <r>     4.7250     6.4086    17.9838 </r>
       <r>     4.7993     6.9655    18.5011 </r>
       <r>     4.8735     7.0537    19.0249 </r>
       <r>     4.9478     6.8996    19.5372 </r>
       <r>     5.0221     7.1381    20.0673 </r>
       <r>     5.0963     7.9043    20.6542 </r>
       <r>     5.1706     8.6511    21.2966 </r>
       <r>     5.2448     8.7555    21.9468 </r>
       <r>     5.3191     8.1025    22.5485 </r>
       <r>     5.3933     7.0223    23.0699 </r>
       <r>     5.4676     5.8779    23.5064 </r>
       <r>     5.5419     4.9959    23.8774 </r>
       <r>     5.6161     4.5938    24.2185 </r>
       <r>     5.6904     4.4953    24.5523 </r>
       <r>     5.7646     4.3625    24.8762 </r>
       <r>     5.8389     4.1766    25.1864 </r>
       <r>     5.9131     4.1644    25.4956 </r>
       <r>     5.9874     4.3422    25.8181 </r>
       <r>     6.0617     4.3607    26.1419 </r>
       <r>     6.1359     4.0227    26.4406 </r>
       <r>     6.2102     3.7139    26.7164 </r>
       <r>     6.2844     3.8808    27.0046 </r>
       <r>     6.3587     4.3385    27.3267 </r>
       <r>     6.4329     4.6147    27.6694 </r>
       <r>     6.5072     4.7084    28.0190 </r>
       <r>     6.5815     4.9265    28.3849 </r>
       <r>     6.6557     5.3243    28.7802 </r>
       <r>     6.7300     5.7290    29.2056 </r>
       <r>     6.8042     5.8719    29.6417 </r>
       <r>     6.8785     5.5784    30.0559 </r>
       <r>     6.9527     5.1532    30.4386 </r>
       <r>     7.0270     5.0079    30.8104 </r>
       <r>     7.1013     4.9600    31.1788 </r>
       <r>     7.1755     4.5900    31.5196 </r>
       <r>     7.2498     4.0169    31.8179 </r>
       <r>     7.3240     3.7785    32.0985 </r>
       <r>     7.3983     4.1084    32.4035 </r>
       <r>     7.4725     4.6332    32.7476 </r>
       <r>     7.5468     4.7376    33.0994 </r>
       <r>     7.6211     4.1784    33.4097 </r>
       <r>     7.6953     3.4512    33.6660 </r>
       <r>     7.7696     3.3297    33.9132 </r>
       <r>     7.8438     3.8561    34.1996 </r>
       <r>     7.9181     4.2818    34.5175 </r>
       <r>     7.9924     4.1663    34.8269 </r>
       <r>     8.0666     3.8687    35.1142 </r>
       <r>     8.1409     3.8440    35.3996 </r>
       <r>     8.2151     4.0422    35.6998 </r>
       <r>     8.2894     4.1320    36.0066 </r>
       <r>     8.3636     4.0535    36.3076 </r>
       <r>     8.4379     4.1278    36.6141 </r>
       <r>     8.5122     4.5302    36.9505 </r>
       <r>     8.5864     5.0270    37.3238 </r>
       <r>     8.6607     5.4723    37.7302 </r>
       <r>     8.7349     5.9907    38.1750 </r>
       <r>     8.8092     6.5339    38.6602 </r>
       <r>     8.8834     6.9327    39.1750 </r>
       <r>     8.9577     7.2294    39.7119 </r>
       <r>     9.0320     7.2997    40.2539 </r>
       <r>     9.1062     6.6773    40.7498 </r>
       <r>     9.1805     5.3773    41.1491 </r>
       <r>     9.2547     4.2319    41.4633 </r>
       <r>     9.3290     3.8415    41.7486 </r>
       <r>     9.4032     3.7829    42.0295 </r>
       <r>     9.4775     3.3135    42.2755 </r>
       <r>     9.5518     2.3052    42.4467 </r>
       <r>     9.6260     1.2175    42.5371 </r>
       <r>     9.7003     0.5905    42.5810 </r>
       <r>     9.7745     0.6174    42.6268 </r>
       <r>     9.8488     1.0748    42.7066 </r>
       <r>     9.9230     1.5737    42.8235 </r>
       <r>     9.9973     1.7268    42.9517 </r>
       <r>    10.0716     1.3572    43.0525 </r>
       <r>    10.1458     0.7507    43.1082 </r>
       <r>    10.2201     0.3657    43.1354 </r>
       <r>    10.2943     0.3395    43.1606 </r>
       <r>    10.3686     0.5989    43.2051 </r>
       <r>    10.4428     1.1144    43.2878 </r>
       <r>    10.5171     1.6803    43.4126 </r>
       <r>    10.5914     1.8370    43.5490 </r>
       <r>    10.6656     1.4204    43.6545 </r>
       <r>    10.7399     0.8522    43.7178 </r>
       <r>    10.8141     0.5961    43.7620 </r>
       <r>    10.8884     0.6823    43.8127 </r>
       <r>    10.9626     0.8714    43.8774 </r>
       <r>    11.0369     0.9798    43.9502 </r>
       <r>    11.1112     1.0257    44.0263 </r>
       <r>    11.1854     1.1246    44.1098 </r>
       <r>    11.2597     1.2315    44.2013 </r>
       <r>    11.3339     1.1783    44.2888 </r>
       <r>    11.4082     0.9887    44.3622 </r>
       <r>    11.4824     0.8678    44.4267 </r>
       <r>    11.5567     0.9292    44.4957 </r>
       <r>    11.6310     1.1478    44.5809 </r>
       <r>    11.7052     1.3617    44.6820 </r>
       <r>    11.7795     1.2861    44.7775 </r>
       <r>    11.8537     0.8894    44.8435 </r>
       <r>    11.9280     0.5783    44.8865 </r>
       <r>    12.0022     0.6893    44.9377 </r>
       <r>    12.0765     1.0704    45.0172 </r>
       <r>    12.1508     1.3237    45.1155 </r>
       <r>    12.2250     1.2375    45.2074 </r>
       <r>    12.2993     0.9388    45.2771 </r>
       <r>    12.3735     0.7452    45.3324 </r>
       <r>    12.4478     0.8290    45.3940 </r>
       <r>    12.5220     1.0483    45.4718 </r>
       <r>    12.5963     1.1710    45.5588 </r>
       <r>    12.6706     1.1243    45.6423 </r>
       <r>    12.7448     0.9919    45.7159 </r>
       <r>    12.8191     0.8922    45.7822 </r>
       <r>    12.8933     0.8738    45.8470 </r>
       <r>    12.9676     0.9109    45.9147 </r>
       <r>    13.0418     0.9683    45.9866 </r>
       <r>    13.1161     1.0206    46.0624 </r>
       <r>    13.1904     1.0300    46.1389 </r>
       <r>    13.2646     0.9444    46.2090 </r>
       <r>    13.3389     0.7590    46.2654 </r>
       <r>    13.4131     0.5997    46.3099 </r>
       <r>    13.4874     0.6545    46.3585 </r>
       <r>    13.5617     0.9090    46.4260 </r>
       <r>    13.6359     1.1028    46.5079 </r>
       <r>    13.7102     1.1034    46.5898 </r>
       <r>    13.7844     1.0225    46.6657 </r>
       <r>    13.8587     0.9046    46.7329 </r>
       <r>    13.9329     0.7582    46.7892 </r>
       <r>    14.0072     0.7235    46.8429 </r>
       <r>    14.0815     0.8155    46.9035 </r>
       <r>    14.1557     0.8310    46.9652 </r>
       <r>    14.2300     0.6706    47.0150 </r>
       <r>    14.3042     0.4710    47.0500 </r>
       <r>    14.3785     0.4651    47.0845 </r>
       <r>    14.4527     0.7516    47.1403 </r>
       <r>    14.5270     1.0851    47.2209 </r>
       <r>    14.6013     1.1060    47.3030 </r>
       <r>    14.6755     0.8516    47.3663 </r>
       <r>    14.7498     0.6463    47.4143 </r>
       <r>    14.8240     0.5751    47.4570 </r>
       <r>    14.8983     0.5170    47.4954 </r>
       <r>    14.9725     0.4820    47.5311 </r>
       <r>    15.0468     0.5616    47.5728 </r>
       <r>    15.1211     0.7142    47.6259 </r>
       <r>    15.1953     0.7956    47.6850 </r>
       <r>    15.2696     0.7273    47.7390 </r>
       <r>    15.3438     0.5555    47.7802 </r>
       <r>    15.4181     0.4064    47.8104 </r>
       <r>    15.4923     0.3760    47.8383 </r>
       <r>    15.5666     0.4006    47.8681 </r>
       <r>    15.6409     0.3451    47.8937 </r>
       <r>    15.7151     0.2185    47.9099 </r>
       <r>    15.7894     0.1328    47.9198 </r>
       <r>    15.8636     0.1211    47.9288 </r>
       <r>    15.9379     0.1402    47.9392 </r>
       <r>    16.0121     0.1576    47.9509 </r>
       <r>    16.0864     0.1549    47.9624 </r>
       <r>    16.1607     0.1169    47.9711 </r>
       <r>    16.2349     0.0672    47.9761 </r>
       <r>    16.3092     0.0620    47.9807 </r>
       <r>    16.3834     0.0994    47.9880 </r>
       <r>    16.4577     0.1076    47.9960 </r>
       <r>    16.5319     0.0598    48.0005 </r>
       <r>    16.6062     0.0077    48.0010 </r>
       <r>    16.6805    -0.0099    48.0003 </r>
       <r>    16.7547    -0.0054    47.9999 </r>
       <r>    16.8290    -0.0002    47.9999 </r>
       <r>    16.9032     0.0008    48.0000 </r>
       <r>    16.9775     0.0004    48.0000 </r>
       <r>    17.0517     0.0001    48.0000 </r>
       <r>    17.1260     0.0000    48.0000 </r>
       <r>    17.2003     0.0000    48.0000 </r>
       <r>    17.2745     0.0000    48.0000 </r>
       <r>    17.3488     0.0000    48.0000 </r>
       <r>    17.4230     0.0000    48.0000 </r>
       <r>    17.4973     0.0000    48.0000 </r>
       <r>    17.5715     0.0000    48.0000 </r>
       <r>    17.6458     0.0000    48.0000 </r>
       <r>    17.7201     0.0000    48.0000 </r>
       <r>    17.7943     0.0000    48.0000 </r>
       <r>    17.8686     0.0000    48.0000 </r>
       <r>    17.9428     0.0000    48.0000 </r>
       <r>    18.0171     0.0000    48.0000 </r>
       <r>    18.0913     0.0000    48.0000 </r>
       <r>    18.1656     0.0000    48.0000 </r>
       <r>    18.2399     0.0000    48.0000 </r>
       <r>    18.3141     0.0000    48.0000 </r>
       <r>    18.3884     0.0000    48.0000 </r>
      </set>
     </set>
    </array>
   </total>
  </dos>
 </calculation>
 <structure name="finalpos" >
  <crystal>
   <varray name="basis" >
    <v>       3.84000000       0.00000000       0.00000000 </v>
    <v>       0.00000000       3.84000000       0.00000000 </v>
    <v>       0.00000000       0.00000000       3.84000000 </v>
   </varray>
   <i name="volume">     56.62310400 </i>
   <varray name="rec_basis" >
    <v>       0.26041667       0.00000000       0.00000000 </v>
    <v>       0.00000000       0.26041667       0.00000000 </v>
    <v>       0.00000000       0.00000000       0.26041667 </v>
   </varray>
  </crystal>
  <varray name="positions" >
   <v>       0.00000000       0.00000000       0.00000000 </v>
   <v>       0.00000000       0.50000000       0.50000000 </v>
   <v>       0.50000000       0.00000000       0.50000000 </v>
   <v>       0.50000000       0.50000000       0.00000000 </v>
  </varray>
 </structure>
</modeling>
