This job started on
Tue Jan 22 15:09:45 CET 2019
 running on   16 total cores
 distrk:  each k-point on   16 cores,    1 groups
 distr:  one band on    8 cores,    2 groups
 using from now: INCAR     
 vasp.5.4.4.18Apr17-6-g9f103f2a35 (build Apr 17 2018 18:25:23) complex          
  
 POSCAR found :  1 types and       4 ions

 ----------------------------------------------------------------------------- 
|                                                                             |
|  ADVICE TO THIS USER RUNNING 'VASP/VAMP'   (HEAR YOUR MASTER'S VOICE ...):  |
|                                                                             |
|      You enforced a specific xc-type in the INCAR file,                     |
|      a different type was found on the POTCAR file                          |
|          I HOPE YOU KNOW, WHAT YOU ARE  DOING                               |
|                                                                             |
 ----------------------------------------------------------------------------- 

 LDA part: xc-table for Ceperly-Alder, standard interpolation
 POSCAR found :  1 types and       4 ions
 POSCAR, INCAR and KPOINTS ok, starting setup
 FFT: planning ...
 WAVECAR not read
 entering main loop
       N       E                     dE             d eps       ncg     rms          rms(c)
DAV:   1     0.458731379810E+03    0.45873E+03   -0.17419E+04 10640   0.153E+03
DAV:   2     0.335351369506E+01   -0.45538E+03   -0.44293E+03 10608   0.531E+02
DAV:   3    -0.244543503427E+02   -0.27808E+02   -0.27001E+02 14256   0.125E+02
DAV:   4    -0.252420717536E+02   -0.78772E+00   -0.78288E+00 11360   0.259E+01
DAV:   5    -0.252626360270E+02   -0.20564E-01   -0.20553E-01 12664   0.288E+00    0.759E+00
DAV:   6    -0.238991203077E+02    0.13635E+01   -0.28228E+00 12592   0.192E+01    0.247E+00
DAV:   7    -0.237199616649E+02    0.17916E+00   -0.50542E-01 15272   0.739E+00    0.480E-01
DAV:   8    -0.237009890642E+02    0.18973E-01   -0.21490E-02 11080   0.186E+00    0.100E-01
DAV:   9    -0.237007052544E+02    0.28381E-03   -0.17593E-03 14032   0.458E-01    0.229E-02
DAV:  10    -0.237007278861E+02   -0.22632E-04   -0.48424E-05 11792   0.394E-02    0.352E-03
DAV:  11    -0.237007307520E+02   -0.28660E-05   -0.14932E-06  8216   0.114E-02    0.683E-04
DAV:  12    -0.237007306850E+02    0.67042E-07   -0.23379E-07  5792   0.441E-03
   1 F= -.23700731E+02 E0= -.23699577E+02  d E =-.237007E+02
 curvature:   0.00 expect dE= 0.000E+00 dE for cont linesearch  0.000E+00
 trial: gam= 0.00000 g(F)=  0.307E-62 g(S)=  0.000E+00 ort = 0.000E+00 (trialstep = 0.100E+01)
 search vector abs. value=  0.100E-09
 reached required accuracy - stopping structural energy minimisation
 writing wavefunctions
This job finished on
Tue Jan 22 15:10:17 CET 2019
