<?xml version="1.0" encoding="ISO-8859-1"?>
<modeling>
 <generator>
  <i name="program" type="string">vasp </i>
  <i name="version" type="string">5.4.4.18Apr17-6-g9f103f2a35  </i>
  <i name="subversion" type="string">(build Apr 17 2018 18:25:23) complex            parallel </i>
  <i name="platform" type="string">LinuxIFC </i>
  <i name="date" type="string">2019 01 22 </i>
  <i name="time" type="string">15:09:47 </i>
 </generator>
 <incar>
  <i type="string" name="SYSTEM"> Pt bulk calculation</i>
  <i type="int" name="ISTART">     0</i>
  <i type="string" name="PREC">normal</i>
  <i type="string" name="ALGO"> NORMAL</i>
  <i type="int" name="ICHARG">     2</i>
  <i type="int" name="INIWAV">     1</i>
  <i type="int" name="NELMIN">    10</i>
  <i type="int" name="IBRION">     2</i>
  <i name="EDIFF">      0.00000100</i>
  <i name="EDIFFG">     -0.02000000</i>
  <i type="int" name="NSW">    10</i>
  <i name="ENCUT">    450.00000000</i>
  <i name="POTIM">      0.20000000</i>
  <i type="int" name="ISMEAR">     2</i>
  <i name="SIGMA">      0.20000000</i>
  <v type="int" name="KPOINT_BSE">    -1     0     0     0</v>
  <i type="string" name="GGA"> 91</i>
 </incar>
 <structure name="primitive_cell" >
  <crystal>
   <varray name="basis" >
    <v>       1.92000000       1.92000000       0.00000000 </v>
    <v>       1.92000000       0.00000000      -1.92000000 </v>
    <v>       0.00000000       1.92000000      -1.92000000 </v>
   </varray>
   <i name="volume">     14.15577600 </i>
   <varray name="rec_basis" >
    <v>       0.26041667       0.26041667       0.26041667 </v>
    <v>       0.26041667      -0.26041667      -0.26041667 </v>
    <v>      -0.26041667       0.26041667      -0.26041667 </v>
   </varray>
  </crystal>
  <varray name="positions" >
   <v>       0.00000000       0.00000000       0.00000000 </v>
  </varray>
 </structure>
 <varray name="primitive_index" >
  <v type="int" >        1 </v>
 </varray>
 <kpoints>
  <generation param="Monkhorst-Pack">
   <v type="int" name="divisions">      20       20       20 </v>
   <v name="usershift">      0.00000000       0.00000000       0.00000000 </v>
   <v name="genvec1">      0.05000000       0.00000000       0.00000000 </v>
   <v name="genvec2">      0.00000000       0.05000000       0.00000000 </v>
   <v name="genvec3">      0.00000000       0.00000000       0.05000000 </v>
   <v name="shift">      0.50000000       0.50000000       0.50000000 </v>
  </generation>
  <varray name="kpointlist" >
   <v>       0.02500000       0.02500000       0.02500000 </v>
   <v>       0.07500000       0.02500000       0.02500000 </v>
   <v>       0.12500000       0.02500000       0.02500000 </v>
   <v>       0.17500000       0.02500000       0.02500000 </v>
   <v>       0.22500000       0.02500000       0.02500000 </v>
   <v>       0.27500000       0.02500000       0.02500000 </v>
   <v>       0.32500000       0.02500000       0.02500000 </v>
   <v>       0.37500000       0.02500000       0.02500000 </v>
   <v>       0.42500000       0.02500000       0.02500000 </v>
   <v>       0.47500000       0.02500000       0.02500000 </v>
   <v>       0.07500000       0.07500000       0.02500000 </v>
   <v>       0.12500000       0.07500000       0.02500000 </v>
   <v>       0.17500000       0.07500000       0.02500000 </v>
   <v>       0.22500000       0.07500000       0.02500000 </v>
   <v>       0.27500000       0.07500000       0.02500000 </v>
   <v>       0.32500000       0.07500000       0.02500000 </v>
   <v>       0.37500000       0.07500000       0.02500000 </v>
   <v>       0.42500000       0.07500000       0.02500000 </v>
   <v>       0.47500000       0.07500000       0.02500000 </v>
   <v>       0.12500000       0.12500000       0.02500000 </v>
   <v>       0.17500000       0.12500000       0.02500000 </v>
   <v>       0.22500000       0.12500000       0.02500000 </v>
   <v>       0.27500000       0.12500000       0.02500000 </v>
   <v>       0.32500000       0.12500000       0.02500000 </v>
   <v>       0.37500000       0.12500000       0.02500000 </v>
   <v>       0.42500000       0.12500000       0.02500000 </v>
   <v>       0.47500000       0.12500000       0.02500000 </v>
   <v>       0.17500000       0.17500000       0.02500000 </v>
   <v>       0.22500000       0.17500000       0.02500000 </v>
   <v>       0.27500000       0.17500000       0.02500000 </v>
   <v>       0.32500000       0.17500000       0.02500000 </v>
   <v>       0.37500000       0.17500000       0.02500000 </v>
   <v>       0.42500000       0.17500000       0.02500000 </v>
   <v>       0.47500000       0.17500000       0.02500000 </v>
   <v>       0.22500000       0.22500000       0.02500000 </v>
   <v>       0.27500000       0.22500000       0.02500000 </v>
   <v>       0.32500000       0.22500000       0.02500000 </v>
   <v>       0.37500000       0.22500000       0.02500000 </v>
   <v>       0.42500000       0.22500000       0.02500000 </v>
   <v>       0.47500000       0.22500000       0.02500000 </v>
   <v>       0.27500000       0.27500000       0.02500000 </v>
   <v>       0.32500000       0.27500000       0.02500000 </v>
   <v>       0.37500000       0.27500000       0.02500000 </v>
   <v>       0.42500000       0.27500000       0.02500000 </v>
   <v>       0.47500000       0.27500000       0.02500000 </v>
   <v>       0.32500000       0.32500000       0.02500000 </v>
   <v>       0.37500000       0.32500000       0.02500000 </v>
   <v>       0.42500000       0.32500000       0.02500000 </v>
   <v>       0.47500000       0.32500000       0.02500000 </v>
   <v>       0.37500000       0.37500000       0.02500000 </v>
   <v>       0.42500000       0.37500000       0.02500000 </v>
   <v>       0.47500000       0.37500000       0.02500000 </v>
   <v>       0.42500000       0.42500000       0.02500000 </v>
   <v>       0.47500000       0.42500000       0.02500000 </v>
   <v>       0.47500000       0.47500000       0.02500000 </v>
   <v>       0.07500000       0.07500000       0.07500000 </v>
   <v>       0.12500000       0.07500000       0.07500000 </v>
   <v>       0.17500000       0.07500000       0.07500000 </v>
   <v>       0.22500000       0.07500000       0.07500000 </v>
   <v>       0.27500000       0.07500000       0.07500000 </v>
   <v>       0.32500000       0.07500000       0.07500000 </v>
   <v>       0.37500000       0.07500000       0.07500000 </v>
   <v>       0.42500000       0.07500000       0.07500000 </v>
   <v>       0.47500000       0.07500000       0.07500000 </v>
   <v>       0.12500000       0.12500000       0.07500000 </v>
   <v>       0.17500000       0.12500000       0.07500000 </v>
   <v>       0.22500000       0.12500000       0.07500000 </v>
   <v>       0.27500000       0.12500000       0.07500000 </v>
   <v>       0.32500000       0.12500000       0.07500000 </v>
   <v>       0.37500000       0.12500000       0.07500000 </v>
   <v>       0.42500000       0.12500000       0.07500000 </v>
   <v>       0.47500000       0.12500000       0.07500000 </v>
   <v>       0.17500000       0.17500000       0.07500000 </v>
   <v>       0.22500000       0.17500000       0.07500000 </v>
   <v>       0.27500000       0.17500000       0.07500000 </v>
   <v>       0.32500000       0.17500000       0.07500000 </v>
   <v>       0.37500000       0.17500000       0.07500000 </v>
   <v>       0.42500000       0.17500000       0.07500000 </v>
   <v>       0.47500000       0.17500000       0.07500000 </v>
   <v>       0.22500000       0.22500000       0.07500000 </v>
   <v>       0.27500000       0.22500000       0.07500000 </v>
   <v>       0.32500000       0.22500000       0.07500000 </v>
   <v>       0.37500000       0.22500000       0.07500000 </v>
   <v>       0.42500000       0.22500000       0.07500000 </v>
   <v>       0.47500000       0.22500000       0.07500000 </v>
   <v>       0.27500000       0.27500000       0.07500000 </v>
   <v>       0.32500000       0.27500000       0.07500000 </v>
   <v>       0.37500000       0.27500000       0.07500000 </v>
   <v>       0.42500000       0.27500000       0.07500000 </v>
   <v>       0.47500000       0.27500000       0.07500000 </v>
   <v>       0.32500000       0.32500000       0.07500000 </v>
   <v>       0.37500000       0.32500000       0.07500000 </v>
   <v>       0.42500000       0.32500000       0.07500000 </v>
   <v>       0.47500000       0.32500000       0.07500000 </v>
   <v>       0.37500000       0.37500000       0.07500000 </v>
   <v>       0.42500000       0.37500000       0.07500000 </v>
   <v>       0.47500000       0.37500000       0.07500000 </v>
   <v>       0.42500000       0.42500000       0.07500000 </v>
   <v>       0.47500000       0.42500000       0.07500000 </v>
   <v>       0.47500000       0.47500000       0.07500000 </v>
   <v>       0.12500000       0.12500000       0.12500000 </v>
   <v>       0.17500000       0.12500000       0.12500000 </v>
   <v>       0.22500000       0.12500000       0.12500000 </v>
   <v>       0.27500000       0.12500000       0.12500000 </v>
   <v>       0.32500000       0.12500000       0.12500000 </v>
   <v>       0.37500000       0.12500000       0.12500000 </v>
   <v>       0.42500000       0.12500000       0.12500000 </v>
   <v>       0.47500000       0.12500000       0.12500000 </v>
   <v>       0.17500000       0.17500000       0.12500000 </v>
   <v>       0.22500000       0.17500000       0.12500000 </v>
   <v>       0.27500000       0.17500000       0.12500000 </v>
   <v>       0.32500000       0.17500000       0.12500000 </v>
   <v>       0.37500000       0.17500000       0.12500000 </v>
   <v>       0.42500000       0.17500000       0.12500000 </v>
   <v>       0.47500000       0.17500000       0.12500000 </v>
   <v>       0.22500000       0.22500000       0.12500000 </v>
   <v>       0.27500000       0.22500000       0.12500000 </v>
   <v>       0.32500000       0.22500000       0.12500000 </v>
   <v>       0.37500000       0.22500000       0.12500000 </v>
   <v>       0.42500000       0.22500000       0.12500000 </v>
   <v>       0.47500000       0.22500000       0.12500000 </v>
   <v>       0.27500000       0.27500000       0.12500000 </v>
   <v>       0.32500000       0.27500000       0.12500000 </v>
   <v>       0.37500000       0.27500000       0.12500000 </v>
   <v>       0.42500000       0.27500000       0.12500000 </v>
   <v>       0.47500000       0.27500000       0.12500000 </v>
   <v>       0.32500000       0.32500000       0.12500000 </v>
   <v>       0.37500000       0.32500000       0.12500000 </v>
   <v>       0.42500000       0.32500000       0.12500000 </v>
   <v>       0.47500000       0.32500000       0.12500000 </v>
   <v>       0.37500000       0.37500000       0.12500000 </v>
   <v>       0.42500000       0.37500000       0.12500000 </v>
   <v>       0.47500000       0.37500000       0.12500000 </v>
   <v>       0.42500000       0.42500000       0.12500000 </v>
   <v>       0.47500000       0.42500000       0.12500000 </v>
   <v>       0.47500000       0.47500000       0.12500000 </v>
   <v>       0.17500000       0.17500000       0.17500000 </v>
   <v>       0.22500000       0.17500000       0.17500000 </v>
   <v>       0.27500000       0.17500000       0.17500000 </v>
   <v>       0.32500000       0.17500000       0.17500000 </v>
   <v>       0.37500000       0.17500000       0.17500000 </v>
   <v>       0.42500000       0.17500000       0.17500000 </v>
   <v>       0.47500000       0.17500000       0.17500000 </v>
   <v>       0.22500000       0.22500000       0.17500000 </v>
   <v>       0.27500000       0.22500000       0.17500000 </v>
   <v>       0.32500000       0.22500000       0.17500000 </v>
   <v>       0.37500000       0.22500000       0.17500000 </v>
   <v>       0.42500000       0.22500000       0.17500000 </v>
   <v>       0.47500000       0.22500000       0.17500000 </v>
   <v>       0.27500000       0.27500000       0.17500000 </v>
   <v>       0.32500000       0.27500000       0.17500000 </v>
   <v>       0.37500000       0.27500000       0.17500000 </v>
   <v>       0.42500000       0.27500000       0.17500000 </v>
   <v>       0.47500000       0.27500000       0.17500000 </v>
   <v>       0.32500000       0.32500000       0.17500000 </v>
   <v>       0.37500000       0.32500000       0.17500000 </v>
   <v>       0.42500000       0.32500000       0.17500000 </v>
   <v>       0.47500000       0.32500000       0.17500000 </v>
   <v>       0.37500000       0.37500000       0.17500000 </v>
   <v>       0.42500000       0.37500000       0.17500000 </v>
   <v>       0.47500000       0.37500000       0.17500000 </v>
   <v>       0.42500000       0.42500000       0.17500000 </v>
   <v>       0.47500000       0.42500000       0.17500000 </v>
   <v>       0.47500000       0.47500000       0.17500000 </v>
   <v>       0.22500000       0.22500000       0.22500000 </v>
   <v>       0.27500000       0.22500000       0.22500000 </v>
   <v>       0.32500000       0.22500000       0.22500000 </v>
   <v>       0.37500000       0.22500000       0.22500000 </v>
   <v>       0.42500000       0.22500000       0.22500000 </v>
   <v>       0.47500000       0.22500000       0.22500000 </v>
   <v>       0.27500000       0.27500000       0.22500000 </v>
   <v>       0.32500000       0.27500000       0.22500000 </v>
   <v>       0.37500000       0.27500000       0.22500000 </v>
   <v>       0.42500000       0.27500000       0.22500000 </v>
   <v>       0.47500000       0.27500000       0.22500000 </v>
   <v>       0.32500000       0.32500000       0.22500000 </v>
   <v>       0.37500000       0.32500000       0.22500000 </v>
   <v>       0.42500000       0.32500000       0.22500000 </v>
   <v>       0.47500000       0.32500000       0.22500000 </v>
   <v>       0.37500000       0.37500000       0.22500000 </v>
   <v>       0.42500000       0.37500000       0.22500000 </v>
   <v>       0.47500000       0.37500000       0.22500000 </v>
   <v>       0.42500000       0.42500000       0.22500000 </v>
   <v>       0.47500000       0.42500000       0.22500000 </v>
   <v>       0.47500000       0.47500000       0.22500000 </v>
   <v>       0.27500000       0.27500000       0.27500000 </v>
   <v>       0.32500000       0.27500000       0.27500000 </v>
   <v>       0.37500000       0.27500000       0.27500000 </v>
   <v>       0.42500000       0.27500000       0.27500000 </v>
   <v>       0.47500000       0.27500000       0.27500000 </v>
   <v>       0.32500000       0.32500000       0.27500000 </v>
   <v>       0.37500000       0.32500000       0.27500000 </v>
   <v>       0.42500000       0.32500000       0.27500000 </v>
   <v>       0.47500000       0.32500000       0.27500000 </v>
   <v>       0.37500000       0.37500000       0.27500000 </v>
   <v>       0.42500000       0.37500000       0.27500000 </v>
   <v>       0.47500000       0.37500000       0.27500000 </v>
   <v>       0.42500000       0.42500000       0.27500000 </v>
   <v>       0.47500000       0.42500000       0.27500000 </v>
   <v>       0.47500000       0.47500000       0.27500000 </v>
   <v>       0.32500000       0.32500000       0.32500000 </v>
   <v>       0.37500000       0.32500000       0.32500000 </v>
   <v>       0.42500000       0.32500000       0.32500000 </v>
   <v>       0.47500000       0.32500000       0.32500000 </v>
   <v>       0.37500000       0.37500000       0.32500000 </v>
   <v>       0.42500000       0.37500000       0.32500000 </v>
   <v>       0.47500000       0.37500000       0.32500000 </v>
   <v>       0.42500000       0.42500000       0.32500000 </v>
   <v>       0.47500000       0.42500000       0.32500000 </v>
   <v>       0.47500000       0.47500000       0.32500000 </v>
   <v>       0.37500000       0.37500000       0.37500000 </v>
   <v>       0.42500000       0.37500000       0.37500000 </v>
   <v>       0.47500000       0.37500000       0.37500000 </v>
   <v>       0.42500000       0.42500000       0.37500000 </v>
   <v>       0.47500000       0.42500000       0.37500000 </v>
   <v>       0.47500000       0.47500000       0.37500000 </v>
   <v>       0.42500000       0.42500000       0.42500000 </v>
   <v>       0.47500000       0.42500000       0.42500000 </v>
   <v>       0.47500000       0.47500000       0.42500000 </v>
   <v>       0.47500000       0.47500000       0.47500000 </v>
  </varray>
  <varray name="weights" >
   <v>       0.00100000 </v>
   <v>       0.00300000 </v>
   <v>       0.00300000 </v>
   <v>       0.00300000 </v>
   <v>       0.00300000 </v>
   <v>       0.00300000 </v>
   <v>       0.00300000 </v>
   <v>       0.00300000 </v>
   <v>       0.00300000 </v>
   <v>       0.00300000 </v>
   <v>       0.00300000 </v>
   <v>       0.00600000 </v>
   <v>       0.00600000 </v>
   <v>       0.00600000 </v>
   <v>       0.00600000 </v>
   <v>       0.00600000 </v>
   <v>       0.00600000 </v>
   <v>       0.00600000 </v>
   <v>       0.00600000 </v>
   <v>       0.00300000 </v>
   <v>       0.00600000 </v>
   <v>       0.00600000 </v>
   <v>       0.00600000 </v>
   <v>       0.00600000 </v>
   <v>       0.00600000 </v>
   <v>       0.00600000 </v>
   <v>       0.00600000 </v>
   <v>       0.00300000 </v>
   <v>       0.00600000 </v>
   <v>       0.00600000 </v>
   <v>       0.00600000 </v>
   <v>       0.00600000 </v>
   <v>       0.00600000 </v>
   <v>       0.00600000 </v>
   <v>       0.00300000 </v>
   <v>       0.00600000 </v>
   <v>       0.00600000 </v>
   <v>       0.00600000 </v>
   <v>       0.00600000 </v>
   <v>       0.00600000 </v>
   <v>       0.00300000 </v>
   <v>       0.00600000 </v>
   <v>       0.00600000 </v>
   <v>       0.00600000 </v>
   <v>       0.00600000 </v>
   <v>       0.00300000 </v>
   <v>       0.00600000 </v>
   <v>       0.00600000 </v>
   <v>       0.00600000 </v>
   <v>       0.00300000 </v>
   <v>       0.00600000 </v>
   <v>       0.00600000 </v>
   <v>       0.00300000 </v>
   <v>       0.00600000 </v>
   <v>       0.00300000 </v>
   <v>       0.00100000 </v>
   <v>       0.00300000 </v>
   <v>       0.00300000 </v>
   <v>       0.00300000 </v>
   <v>       0.00300000 </v>
   <v>       0.00300000 </v>
   <v>       0.00300000 </v>
   <v>       0.00300000 </v>
   <v>       0.00300000 </v>
   <v>       0.00300000 </v>
   <v>       0.00600000 </v>
   <v>       0.00600000 </v>
   <v>       0.00600000 </v>
   <v>       0.00600000 </v>
   <v>       0.00600000 </v>
   <v>       0.00600000 </v>
   <v>       0.00600000 </v>
   <v>       0.00300000 </v>
   <v>       0.00600000 </v>
   <v>       0.00600000 </v>
   <v>       0.00600000 </v>
   <v>       0.00600000 </v>
   <v>       0.00600000 </v>
   <v>       0.00600000 </v>
   <v>       0.00300000 </v>
   <v>       0.00600000 </v>
   <v>       0.00600000 </v>
   <v>       0.00600000 </v>
   <v>       0.00600000 </v>
   <v>       0.00600000 </v>
   <v>       0.00300000 </v>
   <v>       0.00600000 </v>
   <v>       0.00600000 </v>
   <v>       0.00600000 </v>
   <v>       0.00600000 </v>
   <v>       0.00300000 </v>
   <v>       0.00600000 </v>
   <v>       0.00600000 </v>
   <v>       0.00600000 </v>
   <v>       0.00300000 </v>
   <v>       0.00600000 </v>
   <v>       0.00600000 </v>
   <v>       0.00300000 </v>
   <v>       0.00600000 </v>
   <v>       0.00300000 </v>
   <v>       0.00100000 </v>
   <v>       0.00300000 </v>
   <v>       0.00300000 </v>
   <v>       0.00300000 </v>
   <v>       0.00300000 </v>
   <v>       0.00300000 </v>
   <v>       0.00300000 </v>
   <v>       0.00300000 </v>
   <v>       0.00300000 </v>
   <v>       0.00600000 </v>
   <v>       0.00600000 </v>
   <v>       0.00600000 </v>
   <v>       0.00600000 </v>
   <v>       0.00600000 </v>
   <v>       0.00600000 </v>
   <v>       0.00300000 </v>
   <v>       0.00600000 </v>
   <v>       0.00600000 </v>
   <v>       0.00600000 </v>
   <v>       0.00600000 </v>
   <v>       0.00600000 </v>
   <v>       0.00300000 </v>
   <v>       0.00600000 </v>
   <v>       0.00600000 </v>
   <v>       0.00600000 </v>
   <v>       0.00600000 </v>
   <v>       0.00300000 </v>
   <v>       0.00600000 </v>
   <v>       0.00600000 </v>
   <v>       0.00600000 </v>
   <v>       0.00300000 </v>
   <v>       0.00600000 </v>
   <v>       0.00600000 </v>
   <v>       0.00300000 </v>
   <v>       0.00600000 </v>
   <v>       0.00300000 </v>
   <v>       0.00100000 </v>
   <v>       0.00300000 </v>
   <v>       0.00300000 </v>
   <v>       0.00300000 </v>
   <v>       0.00300000 </v>
   <v>       0.00300000 </v>
   <v>       0.00300000 </v>
   <v>       0.00300000 </v>
   <v>       0.00600000 </v>
   <v>       0.00600000 </v>
   <v>       0.00600000 </v>
   <v>       0.00600000 </v>
   <v>       0.00600000 </v>
   <v>       0.00300000 </v>
   <v>       0.00600000 </v>
   <v>       0.00600000 </v>
   <v>       0.00600000 </v>
   <v>       0.00600000 </v>
   <v>       0.00300000 </v>
   <v>       0.00600000 </v>
   <v>       0.00600000 </v>
   <v>       0.00600000 </v>
   <v>       0.00300000 </v>
   <v>       0.00600000 </v>
   <v>       0.00600000 </v>
   <v>       0.00300000 </v>
   <v>       0.00600000 </v>
   <v>       0.00300000 </v>
   <v>       0.00100000 </v>
   <v>       0.00300000 </v>
   <v>       0.00300000 </v>
   <v>       0.00300000 </v>
   <v>       0.00300000 </v>
   <v>       0.00300000 </v>
   <v>       0.00300000 </v>
   <v>       0.00600000 </v>
   <v>       0.00600000 </v>
   <v>       0.00600000 </v>
   <v>       0.00600000 </v>
   <v>       0.00300000 </v>
   <v>       0.00600000 </v>
   <v>       0.00600000 </v>
   <v>       0.00600000 </v>
   <v>       0.00300000 </v>
   <v>       0.00600000 </v>
   <v>       0.00600000 </v>
   <v>       0.00300000 </v>
   <v>       0.00600000 </v>
   <v>       0.00300000 </v>
   <v>       0.00100000 </v>
   <v>       0.00300000 </v>
   <v>       0.00300000 </v>
   <v>       0.00300000 </v>
   <v>       0.00300000 </v>
   <v>       0.00300000 </v>
   <v>       0.00600000 </v>
   <v>       0.00600000 </v>
   <v>       0.00600000 </v>
   <v>       0.00300000 </v>
   <v>       0.00600000 </v>
   <v>       0.00600000 </v>
   <v>       0.00300000 </v>
   <v>       0.00600000 </v>
   <v>       0.00300000 </v>
   <v>       0.00100000 </v>
   <v>       0.00300000 </v>
   <v>       0.00300000 </v>
   <v>       0.00300000 </v>
   <v>       0.00300000 </v>
   <v>       0.00600000 </v>
   <v>       0.00600000 </v>
   <v>       0.00300000 </v>
   <v>       0.00600000 </v>
   <v>       0.00300000 </v>
   <v>       0.00100000 </v>
   <v>       0.00300000 </v>
   <v>       0.00300000 </v>
   <v>       0.00300000 </v>
   <v>       0.00600000 </v>
   <v>       0.00300000 </v>
   <v>       0.00100000 </v>
   <v>       0.00300000 </v>
   <v>       0.00300000 </v>
   <v>       0.00100000 </v>
  </varray>
 </kpoints>
 <parameters>
  <separator name="general" >
   <i type="string" name="SYSTEM">Pt bulk calculation</i>
   <i type="logical" name="LCOMPAT"> F  </i>
  </separator>
  <separator name="electronic" >
   <i type="string" name="PREC">normal</i>
   <i name="ENMAX">    450.00000000</i>
   <i name="ENAUG">    358.96600000</i>
   <i name="EDIFF">      0.00000100</i>
   <i type="int" name="IALGO">    38</i>
   <i type="int" name="IWAVPR">    11</i>
   <i type="int" name="NBANDS">    24</i>
   <i name="NELECT">     40.00000000</i>
   <i type="int" name="TURBO">     0</i>
   <i type="int" name="IRESTART">     0</i>
   <i type="int" name="NREBOOT">     0</i>
   <i type="int" name="NMIN">     0</i>
   <i name="EREF">      0.00000000</i>
   <separator name="electronic smearing" >
    <i type="int" name="ISMEAR">     2</i>
    <i name="SIGMA">      0.20000000</i>
    <i name="KSPACING">      0.50000000</i>
    <i type="logical" name="KGAMMA"> T  </i>
   </separator>
   <separator name="electronic projectors" >
    <i type="logical" name="LREAL"> F  </i>
    <v name="ROPT">      0.00000000</v>
    <i type="int" name="LMAXPAW">  -100</i>
    <i type="int" name="LMAXMIX">     2</i>
    <i type="logical" name="NLSPLINE"> F  </i>
   </separator>
   <separator name="electronic startup" >
    <i type="int" name="ISTART">     0</i>
    <i type="int" name="ICHARG">     2</i>
    <i type="int" name="INIWAV">     1</i>
   </separator>
   <separator name="electronic spin" >
    <i type="int" name="ISPIN">     1</i>
    <i type="logical" name="LNONCOLLINEAR"> F  </i>
    <v name="MAGMOM">      1.00000000      1.00000000      1.00000000      1.00000000</v>
    <i name="NUPDOWN">     -1.00000000</i>
    <i type="logical" name="LSORBIT"> F  </i>
    <v name="SAXIS">      0.00000000      0.00000000      1.00000000</v>
    <i type="logical" name="LSPIRAL"> F  </i>
    <v name="QSPIRAL">      0.00000000      0.00000000      0.00000000</v>
    <i type="logical" name="LZEROZ"> F  </i>
   </separator>
   <separator name="electronic exchange-correlation" >
    <i type="logical" name="LASPH"> F  </i>
    <i type="logical" name="LMETAGGA"> F  </i>
   </separator>
   <separator name="electronic convergence" >
    <i type="int" name="NELM">    60</i>
    <i type="int" name="NELMDL">    -5</i>
    <i type="int" name="NELMIN">    10</i>
    <i name="ENINI">    450.00000000</i>
    <separator name="electronic convergence detail" >
     <i type="logical" name="LDIAG"> T  </i>
     <i type="logical" name="LSUBROT"> F  </i>
     <i name="WEIMIN">      0.00100000</i>
     <i name="EBREAK">      0.00000001</i>
     <i name="DEPER">      0.30000000</i>
     <i type="int" name="NRMM">     4</i>
     <i name="TIME">      0.40000000</i>
    </separator>
   </separator>
   <separator name="electronic mixer" >
    <i name="AMIX">      0.40000000</i>
    <i name="BMIX">      1.00000000</i>
    <i name="AMIN">      0.10000000</i>
    <i name="AMIX_MAG">      1.60000000</i>
    <i name="BMIX_MAG">      1.00000000</i>
    <separator name="electronic mixer details" >
     <i type="int" name="IMIX">     4</i>
     <i type="logical" name="MIXFIRST"> F  </i>
     <i type="int" name="MAXMIX">   -45</i>
     <i name="WC">    100.00000000</i>
     <i type="int" name="INIMIX">     1</i>
     <i type="int" name="MIXPRE">     1</i>
     <i type="int" name="MREMOVE">     5</i>
    </separator>
   </separator>
   <separator name="electronic dipolcorrection" >
    <i type="logical" name="LDIPOL"> F  </i>
    <i type="logical" name="LMONO"> F  </i>
    <i type="int" name="IDIPOL">     0</i>
    <i name="EPSILON">      1.00000000</i>
    <v name="DIPOL">   -100.00000000   -100.00000000   -100.00000000</v>
    <i name="EFIELD">      0.00000000</i>
   </separator>
  </separator>
  <separator name="grids" >
   <i type="int" name="NGX">    20</i>
   <i type="int" name="NGY">    20</i>
   <i type="int" name="NGZ">    20</i>
   <i type="int" name="NGXF">    40</i>
   <i type="int" name="NGYF">    40</i>
   <i type="int" name="NGZF">    40</i>
   <i type="logical" name="ADDGRID"> F  </i>
  </separator>
  <separator name="ionic" >
   <i type="int" name="NSW">    10</i>
   <i type="int" name="IBRION">     2</i>
   <i type="int" name="MDALGO">     0</i>
   <i type="int" name="ISIF">     2</i>
   <i name="PSTRESS">      0.00000000</i>
   <i name="EDIFFG">     -0.02000000</i>
   <i type="int" name="NFREE">     1</i>
   <i name="POTIM">      0.20000000</i>
   <i name="SMASS">     -3.00000000</i>
   <i name="SCALEE">      1.00000000</i>
  </separator>
  <separator name="ionic md" >
   <i name="TEBEG">      0.00010000</i>
   <i name="TEEND">      0.00010000</i>
   <i type="int" name="NBLOCK">     1</i>
   <i type="int" name="KBLOCK">    10</i>
   <i type="int" name="NPACO">   256</i>
   <i name="APACO">     16.00000000</i>
  </separator>
  <separator name="symmetry" >
   <i type="int" name="ISYM">     2</i>
   <i name="SYMPREC">      0.00001000</i>
  </separator>
  <separator name="dos" >
   <i type="int" name="LORBIT">     0</i>
   <v name="RWIGS">     -1.00000000</v>
   <i type="int" name="NEDOS">   301</i>
   <i name="EMIN">     10.00000000</i>
   <i name="EMAX">    -10.00000000</i>
   <i name="EFERMI">      0.00000000</i>
  </separator>
  <separator name="writing" >
   <i type="int" name="NWRITE">     2</i>
   <i type="logical" name="LWAVE"> T  </i>
   <i type="logical" name="LDOWNSAMPLE"> F  </i>
   <i type="logical" name="LCHARG"> T  </i>
   <i type="logical" name="LPARD"> F  </i>
   <i type="logical" name="LVTOT"> F  </i>
   <i type="logical" name="LVHAR"> F  </i>
   <i type="logical" name="LELF"> F  </i>
   <i type="logical" name="LOPTICS"> F  </i>
   <v name="STM">      0.00000000      0.00000000      0.00000000      0.00000000      0.00000000      0.00000000      0.00000000</v>
  </separator>
  <separator name="performance" >
   <i type="int" name="NPAR">     2</i>
   <i type="int" name="NSIM">     4</i>
   <i type="int" name="NBLK">    -1</i>
   <i type="logical" name="LPLANE"> T  </i>
   <i type="logical" name="LSCALAPACK"> F  </i>
   <i type="logical" name="LSCAAWARE"> F  </i>
   <i type="logical" name="LSCALU"> F  </i>
   <i type="logical" name="LASYNC"> F  </i>
   <i type="logical" name="LORBITALREAL"> F  </i>
  </separator>
  <separator name="miscellaneous" >
   <i type="int" name="IDIOT">     3</i>
   <i type="int" name="ISPECIAL">     0</i>
   <i type="logical" name="LMUSIC"> F  </i>
   <v name="POMASS">    195.08000000</v>
   <v name="DARWINR">      0.00000000</v>
   <v name="DARWINV">      1.00000000</v>
   <i type="logical" name="LCORR"> T  </i>
  </separator>
  <i type="logical" name="GGA_COMPAT"> T  </i>
  <i type="logical" name="LBERRY"> F  </i>
  <i type="int" name="ICORELEVEL">     0</i>
  <i type="logical" name="LDAU"> F  </i>
  <i type="int" name="I_CONSTRAINED_M">     0</i>
  <separator name="electronic exchange-correlation" >
   <i type="string" name="GGA">91</i>
   <i type="int" name="VOSKOWN">     0</i>
   <i type="logical" name="LHFCALC"> F  </i>
   <i type="string" name="PRECFOCK"></i>
   <i type="logical" name="LSYMGRAD"> F  </i>
   <i type="logical" name="LHFONE"> F  </i>
   <i type="logical" name="LRHFCALC"> F  </i>
   <i type="logical" name="LTHOMAS"> F  </i>
   <i type="logical" name="LMODELHF"> F  </i>
   <i name="ENCUT4O">     -1.00000000</i>
   <i type="int" name="EXXOEP">     0</i>
   <i type="int" name="FOURORBIT">     0</i>
   <i name="AEXX">      0.00000000</i>
   <i name="HFALPHA">      0.00000000</i>
   <i name="MCALPHA">      0.00000000</i>
   <i name="ALDAX">      1.00000000</i>
   <i name="AGGAX">      1.00000000</i>
   <i name="ALDAC">      1.00000000</i>
   <i name="AGGAC">      1.00000000</i>
   <i type="int" name="NKREDX">     1</i>
   <i type="int" name="NKREDY">     1</i>
   <i type="int" name="NKREDZ">     1</i>
   <i type="logical" name="SHIFTRED"> F  </i>
   <i type="logical" name="ODDONLY"> F  </i>
   <i type="logical" name="EVENONLY"> F  </i>
   <i type="int" name="LMAXFOCK">     0</i>
   <i type="int" name="NMAXFOCKAE">     0</i>
   <i type="logical" name="LFOCKAEDFT"> F  </i>
   <i name="HFSCREEN">      0.00000000</i>
   <i name="HFSCREENC">      0.00000000</i>
   <i type="int" name="NBANDSGWLOW">     0</i>
  </separator>
  <separator name="vdW DFT" >
   <i type="logical" name="LUSE_VDW"> F  </i>
   <i name="Zab_VDW">     -0.84910000</i>
   <i name="PARAM1">      0.12340000</i>
   <i name="PARAM2">      1.00000000</i>
   <i name="PARAM3">      0.00000000</i>
  </separator>
  <separator name="model GW" >
   <i type="int" name="MODEL_GW">     0</i>
   <i name="MODEL_EPS0">      8.49346560</i>
   <i name="MODEL_ALPHA">      1.00000000</i>
  </separator>
  <separator name="linear response parameters" >
   <i type="logical" name="LEPSILON"> F  </i>
   <i type="logical" name="LRPA"> F  </i>
   <i type="logical" name="LNABLA"> F  </i>
   <i type="logical" name="LVEL"> F  </i>
   <i type="int" name="KINTER">     0</i>
   <i name="CSHIFT">      0.10000000</i>
   <i name="OMEGAMAX">     -1.00000000</i>
   <i name="DEG_THRESHOLD">      0.00200000</i>
   <i name="RTIME">     -0.10000000</i>
   <i name="WPLASMAI">      0.00000000</i>
   <v name="DFIELD">      0.00000000      0.00000000      0.00000000</v>
   <v name="WPLASMA">      0.00000000      0.00000000      0.00000000      0.00000000      0.00000000      0.00000000      0.00000000      0.00000000      0.00000000</v>
  </separator>
  <separator name="orbital magnetization" >
   <i type="logical" name="NUCIND"> F  </i>
   <v name="MAGPOS">      0.00000000      0.00000000      0.00000000</v>
   <i type="logical" name="LNICSALL"> T  </i>
   <i type="logical" name="ORBITALMAG"> F  </i>
   <i type="logical" name="LMAGBLOCH"> F  </i>
   <i type="logical" name="LCHIMAG"> F  </i>
   <i type="logical" name="LGAUGE"> T  </i>
   <i type="int" name="MAGATOM">     0</i>
   <v name="MAGDIPOL">      0.00000000      0.00000000      0.00000000</v>
   <v name="AVECCONST">      0.00000000      0.00000000      0.00000000</v>
  </separator>
  <separator name="response functions" >
   <i type="logical" name="LADDER"> F  </i>
   <i type="logical" name="LRPAFORCE"> F  </i>
   <i type="logical" name="LFXC"> F  </i>
   <i type="logical" name="LHARTREE"> T  </i>
   <i type="int" name="IBSE">     0</i>
   <v type="int" name="KPOINT">    -1     0     0     0</v>
   <i type="logical" name="LTCTE"> F  </i>
   <i type="logical" name="LTETE"> F  </i>
   <i type="logical" name="LTRIPLET"> F  </i>
   <i type="logical" name="LFXCEPS"> F  </i>
   <i type="logical" name="LFXHEG"> F  </i>
   <i type="int" name="NATURALO">     2</i>
   <i type="logical" name="L2ORDER"> F  </i>
   <i type="logical" name="LMP2LT"> F  </i>
   <i type="logical" name="LUSEW"> F  </i>
   <i name="ENCUTGW">     -2.00000000</i>
   <i name="ENCUTGWSOFT">     -2.00000000</i>
   <i name="ENCUTLF">     -1.00000000</i>
   <i type="int" name="LMAXMP2">    -1</i>
   <i name="SCISSOR">      0.00000000</i>
   <i type="int" name="NOMEGA">     0</i>
   <i type="int" name="NOMEGAR">     0</i>
   <i type="int" name="NBANDSGW">    -1</i>
   <i type="int" name="NBANDSO">    -1</i>
   <i type="int" name="NBANDSV">    -1</i>
   <i type="int" name="NELM">     1</i>
   <i type="int" name="NELMHF">     1</i>
   <i type="int" name="DIM">     3</i>
   <i type="int" name="ANTIRES">     0</i>
   <i name="OMEGAMAX">    -30.00000000</i>
   <i name="OMEGAMIN">    -30.00000000</i>
   <i name="OMEGATL">   -200.00000000</i>
   <i type="int" name="OMEGAGRID">   140</i>
   <i name="CSHIFT">     -0.10000000</i>
   <i type="logical" name="SELFENERGY"> F  </i>
   <i type="logical" name="LSPECTRAL"> F  </i>
   <i type="logical" name="LSPECTRALGW"> F  </i>
   <i type="logical" name="LSINGLES"> F  </i>
   <i type="logical" name="LFERMIGW"> F  </i>
   <i type="logical" name="ODDONLYGW"> F  </i>
   <i type="logical" name="EVENONLYGW"> F  </i>
   <i type="int" name="NKREDLFX">     1</i>
   <i type="int" name="NKREDLFY">     1</i>
   <i type="int" name="NKREDLFZ">     1</i>
   <i type="int" name="MAXMEM">  2800</i>
   <i type="int" name="TELESCOPE">     0</i>
   <i type="int" name="TAUPAR">     1</i>
   <i type="int" name="OMEGAPAR">    -1</i>
   <i name="LAMBDA">      1.00000000</i>
  </separator>
  <separator name="External order field" >
   <i name="OFIELD_KAPPA">      0.00000000</i>
   <v name="OFIELD_K">      0.00000000      0.00000000      0.00000000</v>
   <i name="OFIELD_Q6_NEAR">      0.00000000</i>
   <i name="OFIELD_Q6_FAR">      0.00000000</i>
   <i name="OFIELD_A">      0.00000000</i>
  </separator>
 </parameters>
 <atominfo>
  <atoms>       4 </atoms>
  <types>       1 </types>
  <array name="atoms" >
   <dimension dim="1">ion</dimension>
   <field type="string">element</field>
   <field type="int">atomtype</field>
   <set>
    <rc><c>Pt</c><c>   1</c></rc>
    <rc><c>Pt</c><c>   1</c></rc>
    <rc><c>Pt</c><c>   1</c></rc>
    <rc><c>Pt</c><c>   1</c></rc>
   </set>
  </array>
  <array name="atomtypes" >
   <dimension dim="1">type</dimension>
   <field type="int">atomspertype</field>
   <field type="string">element</field>
   <field>mass</field>
   <field>valence</field>
   <field type="string">pseudopotential</field>
   <set>
    <rc><c>   4</c><c>Pt</c><c>    195.08000000</c><c>     10.00000000</c><c> PAW_PBE Pt 05Jan2001                   </c></rc>
   </set>
  </array>
 </atominfo>
 <structure name="initialpos" >
  <crystal>
   <varray name="basis" >
    <v>       3.84000000       0.00000000       0.00000000 </v>
    <v>       0.00000000       3.84000000       0.00000000 </v>
    <v>       0.00000000       0.00000000       3.84000000 </v>
   </varray>
   <i name="volume">     56.62310400 </i>
   <varray name="rec_basis" >
    <v>       0.26041667       0.00000000       0.00000000 </v>
    <v>       0.00000000       0.26041667       0.00000000 </v>
    <v>       0.00000000       0.00000000       0.26041667 </v>
   </varray>
  </crystal>
  <varray name="positions" >
   <v>       0.00000000       0.00000000       0.00000000 </v>
   <v>       0.00000000       0.50000000       0.50000000 </v>
   <v>       0.50000000       0.00000000       0.50000000 </v>
   <v>       0.50000000       0.50000000       0.00000000 </v>
  </varray>
 </structure>
 <calculation>
  <scstep>
   <time name="dav">    1.79    1.79</time>
   <time name="total">    1.82    1.87</time>
   <energy>
    <i name="alphaZ">    411.12625687 </i>
    <i name="ewald">  -3438.59576860 </i>
    <i name="hartreedc">   -264.26998858 </i>
    <i name="XCdc">     15.29870148 </i>
    <i name="pawpsdc">   2293.79710215 </i>
    <i name="pawaedc">  -2181.03440391 </i>
    <i name="eentropy">      0.00064854 </i>
    <i name="bandstr">    706.87068136 </i>
    <i name="atom">   2915.53815049 </i>
    <i name="e_fr_energy">    458.73137981 </i>
    <i name="e_wo_entrp">    458.73073127 </i>
    <i name="e_0_energy">    458.73121767 </i>
   </energy>
  </scstep>
  <scstep>
   <time name="dav">    1.77    1.77</time>
   <time name="total">    1.78    1.78</time>
   <energy>
    <i name="e_fr_energy">      3.35351370 </i>
    <i name="e_wo_entrp">      3.35425196 </i>
    <i name="e_0_energy">      3.35369826 </i>
   </energy>
  </scstep>
  <scstep>
   <time name="dav">    2.28    2.28</time>
   <time name="total">    2.29    2.29</time>
   <energy>
    <i name="e_fr_energy">    -24.45435034 </i>
    <i name="e_wo_entrp">    -24.45041349 </i>
    <i name="e_0_energy">    -24.45336613 </i>
   </energy>
  </scstep>
  <scstep>
   <time name="dav">    1.85    1.85</time>
   <time name="total">    1.86    1.86</time>
   <energy>
    <i name="e_fr_energy">    -25.24207175 </i>
    <i name="e_wo_entrp">    -25.23763761 </i>
    <i name="e_0_energy">    -25.24096322 </i>
   </energy>
  </scstep>
  <scstep>
   <time name="dav">    2.03    2.03</time>
   <time name="total">    2.15    2.15</time>
   <energy>
    <i name="e_fr_energy">    -25.26263603 </i>
    <i name="e_wo_entrp">    -25.25819912 </i>
    <i name="e_0_energy">    -25.26152680 </i>
   </energy>
  </scstep>
  <scstep>
   <time name="dav">    2.01    2.01</time>
   <time name="total">    2.17    2.17</time>
   <energy>
    <i name="e_fr_energy">    -23.89912031 </i>
    <i name="e_wo_entrp">    -23.89488664 </i>
    <i name="e_0_energy">    -23.89806189 </i>
   </energy>
  </scstep>
  <scstep>
   <time name="dav">    2.34    2.34</time>
   <time name="total">    2.46    2.46</time>
   <energy>
    <i name="e_fr_energy">    -23.71996166 </i>
    <i name="e_wo_entrp">    -23.71537741 </i>
    <i name="e_0_energy">    -23.71881560 </i>
   </energy>
  </scstep>
  <scstep>
   <time name="dav">    1.79    1.79</time>
   <time name="total">    1.91    1.91</time>
   <energy>
    <i name="e_fr_energy">    -23.70098906 </i>
    <i name="e_wo_entrp">    -23.69639172 </i>
    <i name="e_0_energy">    -23.69983973 </i>
   </energy>
  </scstep>
  <scstep>
   <time name="dav">    2.18    2.18</time>
   <time name="total">    2.30    2.30</time>
   <energy>
    <i name="e_fr_energy">    -23.70070525 </i>
    <i name="e_wo_entrp">    -23.69609219 </i>
    <i name="e_0_energy">    -23.69955199 </i>
   </energy>
  </scstep>
  <scstep>
   <time name="dav">    1.87    1.87</time>
   <time name="total">    1.99    1.99</time>
   <energy>
    <i name="e_fr_energy">    -23.70072789 </i>
    <i name="e_wo_entrp">    -23.69611447 </i>
    <i name="e_0_energy">    -23.69957453 </i>
   </energy>
  </scstep>
  <scstep>
   <time name="dav">    1.47    1.47</time>
   <time name="total">    1.59    1.59</time>
   <energy>
    <i name="e_fr_energy">    -23.70073075 </i>
    <i name="e_wo_entrp">    -23.69611706 </i>
    <i name="e_0_energy">    -23.69957733 </i>
   </energy>
  </scstep>
  <scstep>
   <time name="dav">    1.17    1.17</time>
   <time name="total">    1.19    1.19</time>
   <energy>
    <i name="alphaZ">    411.12625687 </i>
    <i name="ewald">  -3438.59576860 </i>
    <i name="hartreedc">   -225.28157080 </i>
    <i name="XCdc">     13.83741898 </i>
    <i name="pawpsdc">   2474.61324747 </i>
    <i name="pawaedc">  -2374.02633669 </i>
    <i name="eentropy">     -0.00461361 </i>
    <i name="bandstr">    199.09248520 </i>
    <i name="atom">   2915.53815049 </i>
    <i name="e_fr_energy">    -23.70073068 </i>
    <i name="e_wo_entrp">    -23.69611707 </i>
    <i name="e_0_energy">    -23.69957728 </i>
   </energy>
  </scstep>
  <structure>
   <crystal>
    <varray name="basis" >
     <v>       3.84000000       0.00000000       0.00000000 </v>
     <v>       0.00000000       3.84000000       0.00000000 </v>
     <v>       0.00000000       0.00000000       3.84000000 </v>
    </varray>
    <i name="volume">     56.62310400 </i>
    <varray name="rec_basis" >
     <v>       0.26041667       0.00000000       0.00000000 </v>
     <v>       0.00000000       0.26041667       0.00000000 </v>
     <v>       0.00000000       0.00000000       0.26041667 </v>
    </varray>
   </crystal>
   <varray name="positions" >
    <v>       0.00000000       0.00000000       0.00000000 </v>
    <v>       0.00000000       0.50000000       0.50000000 </v>
    <v>       0.50000000       0.00000000       0.50000000 </v>
    <v>       0.50000000       0.50000000       0.00000000 </v>
   </varray>
  </structure>
  <varray name="forces" >
   <v>       0.00000000       0.00000000      -0.00000000 </v>
   <v>       0.00000000       0.00000000      -0.00000000 </v>
   <v>      -0.00000000      -0.00000000       0.00000000 </v>
   <v>       0.00000000       0.00000000       0.00000000 </v>
  </varray>
  <varray name="stress" >
   <v>     380.64344097      -0.00000000       0.00000000 </v>
   <v>      -0.00000000     380.64344097      -0.00000000 </v>
   <v>      -0.00000000      -0.00000000     380.64344097 </v>
  </varray>
  <energy>
   <i name="e_fr_energy">    -23.70073068 </i>
   <i name="e_wo_entrp">    -23.69957728 </i>
   <i name="e_0_energy">     -0.00461361 </i>
  </energy>
  <time name="totalsc">   25.25   27.01</time>
  <eigenvalues>
   <array>
    <dimension dim="1">band</dimension>
    <dimension dim="2">kpoint</dimension>
    <dimension dim="3">spin</dimension>
    <field>eigene</field>
    <field>occ</field>
    <set>
     <set comment="spin 1">
      <set comment="kpoint 1">
       <r>   -1.9040    1.0000 </r>
       <r>    1.1792    1.0000 </r>
       <r>    1.1792    1.0000 </r>
       <r>    1.1792    1.0000 </r>
       <r>    1.6614    1.0000 </r>
       <r>    1.6614    1.0000 </r>
       <r>    1.6614    1.0000 </r>
       <r>    4.7551    1.0000 </r>
       <r>    4.7795    1.0000 </r>
       <r>    4.7795    1.0000 </r>
       <r>    7.1706    1.0000 </r>
       <r>    7.1706    1.0000 </r>
       <r>    8.9898    0.5257 </r>
       <r>    8.9898    0.5257 </r>
       <r>    8.9898    0.5257 </r>
       <r>    9.3505    0.0024 </r>
       <r>    9.3505    0.0024 </r>
       <r>    9.3505    0.0024 </r>
       <r>    9.5388    0.0010 </r>
       <r>    9.5388    0.0010 </r>
       <r>    9.5388    0.0010 </r>
       <r>   10.9027    0.0000 </r>
       <r>   10.9027    0.0000 </r>
       <r>   10.9027    0.0000 </r>
      </set>
      <set comment="kpoint 2">
       <r>   -1.8320    1.0000 </r>
       <r>    1.2101    1.0000 </r>
       <r>    1.2330    1.0000 </r>
       <r>    1.2330    1.0000 </r>
       <r>    1.6917    1.0000 </r>
       <r>    1.7090    1.0000 </r>
       <r>    1.7090    1.0000 </r>
       <r>    4.7087    1.0000 </r>
       <r>    4.8146    1.0000 </r>
       <r>    4.8178    1.0000 </r>
       <r>    7.1143    1.0000 </r>
       <r>    7.1911    1.0000 </r>
       <r>    8.8251    1.0468 </r>
       <r>    8.8251    1.0468 </r>
       <r>    8.9175    0.8643 </r>
       <r>    8.9175    0.8643 </r>
       <r>    8.9576    0.6907 </r>
       <r>    9.2199   -0.0441 </r>
       <r>    9.4439    0.0039 </r>
       <r>    9.5334    0.0011 </r>
       <r>    9.5334    0.0011 </r>
       <r>   10.5705    0.0000 </r>
       <r>   11.4544    0.0000 </r>
       <r>   11.4544    0.0000 </r>
      </set>
      <set comment="kpoint 3">
       <r>   -1.6892    1.0000 </r>
       <r>    1.2688    1.0000 </r>
       <r>    1.3386    1.0000 </r>
       <r>    1.3386    1.0000 </r>
       <r>    1.7519    1.0000 </r>
       <r>    1.8039    1.0000 </r>
       <r>    1.8039    1.0000 </r>
       <r>    4.6121    1.0000 </r>
       <r>    4.8913    1.0000 </r>
       <r>    4.8942    1.0000 </r>
       <r>    7.0048    1.0000 </r>
       <r>    7.2318    1.0000 </r>
       <r>    8.1964    1.0000 </r>
       <r>    8.1964    1.0000 </r>
       <r>    8.7434    1.0325 </r>
       <r>    8.7434    1.0325 </r>
       <r>    8.8888    0.9544 </r>
       <r>    8.9530    0.7128 </r>
       <r>    9.2695   -0.0213 </r>
       <r>    9.5327    0.0011 </r>
       <r>    9.5327    0.0011 </r>
       <r>   10.0284    0.0000 </r>
       <r>   12.1579    0.0000 </r>
       <r>   12.1579    0.0000 </r>
      </set>
      <set comment="kpoint 4">
       <r>   -1.4780    1.0000 </r>
       <r>    1.3485    1.0000 </r>
       <r>    1.4922    1.0000 </r>
       <r>    1.4922    1.0000 </r>
       <r>    1.8414    1.0000 </r>
       <r>    1.9459    1.0000 </r>
       <r>    1.9459    1.0000 </r>
       <r>    4.4724    1.0000 </r>
       <r>    5.0061    1.0000 </r>
       <r>    5.0083    1.0000 </r>
       <r>    6.8478    1.0000 </r>
       <r>    7.2919    1.0000 </r>
       <r>    7.5471    1.0000 </r>
       <r>    7.5471    1.0000 </r>
       <r>    8.5037    0.9976 </r>
       <r>    8.5037    0.9976 </r>
       <r>    8.5295    0.9967 </r>
       <r>    8.7640    1.0419 </r>
       <r>    9.0538    0.2075 </r>
       <r>    9.4370    0.0041 </r>
       <r>    9.5327    0.0011 </r>
       <r>    9.5327    0.0011 </r>
       <r>   12.9039    0.0000 </r>
       <r>   12.9039    0.0000 </r>
      </set>
      <set comment="kpoint 5">
       <r>   -1.2025    1.0000 </r>
       <r>    1.4375    1.0000 </r>
       <r>    1.6871    1.0000 </r>
       <r>    1.6871    1.0000 </r>
       <r>    1.9590    1.0000 </r>
       <r>    2.1340    1.0000 </r>
       <r>    2.1340    1.0000 </r>
       <r>    4.2965    1.0000 </r>
       <r>    5.1576    1.0000 </r>
       <r>    5.1594    1.0000 </r>
       <r>    6.6527    1.0000 </r>
       <r>    6.9108    1.0000 </r>
       <r>    6.9108    1.0000 </r>
       <r>    7.3705    1.0000 </r>
       <r>    7.9481    1.0000 </r>
       <r>    8.2046    1.0000 </r>
       <r>    8.2046    1.0000 </r>
       <r>    8.5385    0.9964 </r>
       <r>    8.8638    1.0073 </r>
       <r>    8.9100    0.8909 </r>
       <r>    9.5331    0.0011 </r>
       <r>    9.5331    0.0011 </r>
       <r>   13.6629    0.0000 </r>
       <r>   13.6629    0.0000 </r>
      </set>
      <set comment="kpoint 6">
       <r>   -0.8687    1.0000 </r>
       <r>    1.5173    1.0000 </r>
       <r>    1.9133    1.0000 </r>
       <r>    1.9133    1.0000 </r>
       <r>    2.1034    1.0000 </r>
       <r>    2.3672    1.0000 </r>
       <r>    2.3672    1.0000 </r>
       <r>    4.0919    1.0000 </r>
       <r>    5.3435    1.0000 </r>
       <r>    5.3467    1.0000 </r>
       <r>    6.2977    1.0000 </r>
       <r>    6.2977    1.0000 </r>
       <r>    6.4331    1.0000 </r>
       <r>    7.2926    1.0000 </r>
       <r>    7.4661    1.0000 </r>
       <r>    7.8658    1.0000 </r>
       <r>    7.8658    1.0000 </r>
       <r>    8.2207    1.0000 </r>
       <r>    8.4495    0.9990 </r>
       <r>    8.7131    1.0183 </r>
       <r>    9.5336    0.0011 </r>
       <r>    9.5336    0.0011 </r>
       <r>   14.4195    0.0000 </r>
       <r>   14.4195    0.0000 </r>
      </set>
      <set comment="kpoint 7">
       <r>   -0.4859    1.0000 </r>
       <r>    1.5604    1.0000 </r>
       <r>    2.1555    1.0000 </r>
       <r>    2.1555    1.0000 </r>
       <r>    2.2724    1.0000 </r>
       <r>    2.6437    1.0000 </r>
       <r>    2.6437    1.0000 </r>
       <r>    3.8663    1.0000 </r>
       <r>    5.5563    1.0000 </r>
       <r>    5.5688    1.0000 </r>
       <r>    5.7131    1.0000 </r>
       <r>    5.7131    1.0000 </r>
       <r>    6.2112    1.0000 </r>
       <r>    6.6687    1.0000 </r>
       <r>    7.5149    1.0000 </r>
       <r>    7.5149    1.0000 </r>
       <r>    7.5770    1.0000 </r>
       <r>    7.8620    1.0000 </r>
       <r>    8.0205    1.0000 </r>
       <r>    8.5705    0.9953 </r>
       <r>    9.5341    0.0011 </r>
       <r>    9.5341    0.0011 </r>
       <r>   15.1572    0.0000 </r>
       <r>   15.1572    0.0000 </r>
      </set>
      <set comment="kpoint 8">
       <r>   -0.0680    1.0000 </r>
       <r>    1.5309    1.0000 </r>
       <r>    2.3900    1.0000 </r>
       <r>    2.3900    1.0000 </r>
       <r>    2.4638    1.0000 </r>
       <r>    2.9621    1.0000 </r>
       <r>    2.9621    1.0000 </r>
       <r>    3.6276    1.0000 </r>
       <r>    5.1607    1.0000 </r>
       <r>    5.1607    1.0000 </r>
       <r>    5.7464    1.0000 </r>
       <r>    5.8242    1.0000 </r>
       <r>    6.0560    1.0000 </r>
       <r>    6.1540    1.0000 </r>
       <r>    7.1874    1.0000 </r>
       <r>    7.1874    1.0000 </r>
       <r>    7.4903    1.0000 </r>
       <r>    7.6091    1.0000 </r>
       <r>    7.7011    1.0000 </r>
       <r>    8.4251    0.9994 </r>
       <r>    9.5346    0.0011 </r>
       <r>    9.5346    0.0011 </r>
       <r>   15.8425    0.0000 </r>
       <r>   15.8425    0.0000 </r>
      </set>
      <set comment="kpoint 9">
       <r>    0.3640    1.0000 </r>
       <r>    1.3940    1.0000 </r>
       <r>    2.5833    1.0000 </r>
       <r>    2.5833    1.0000 </r>
       <r>    2.6744    1.0000 </r>
       <r>    3.3214    1.0000 </r>
       <r>    3.3214    1.0000 </r>
       <r>    3.3828    1.0000 </r>
       <r>    4.6434    1.0000 </r>
       <r>    4.6434    1.0000 </r>
       <r>    5.7099    1.0000 </r>
       <r>    5.8013    1.0000 </r>
       <r>    6.1105    1.0000 </r>
       <r>    6.1974    1.0000 </r>
       <r>    6.9271    1.0000 </r>
       <r>    6.9271    1.0000 </r>
       <r>    7.1208    1.0000 </r>
       <r>    7.2151    1.0000 </r>
       <r>    7.8360    1.0000 </r>
       <r>    8.2765    1.0000 </r>
       <r>    9.5350    0.0010 </r>
       <r>    9.5350    0.0010 </r>
       <r>   16.3432    0.0000 </r>
       <r>   16.3432    0.0000 </r>
      </set>
      <set comment="kpoint 10">
       <r>    0.7792    1.0000 </r>
       <r>    1.1364    1.0000 </r>
       <r>    2.6950    1.0000 </r>
       <r>    2.6950    1.0000 </r>
       <r>    2.9008    1.0000 </r>
       <r>    3.1386    1.0000 </r>
       <r>    3.7213    1.0000 </r>
       <r>    3.7213    1.0000 </r>
       <r>    4.1637    1.0000 </r>
       <r>    4.1637    1.0000 </r>
       <r>    5.6185    1.0000 </r>
       <r>    5.6302    1.0000 </r>
       <r>    6.4248    1.0000 </r>
       <r>    6.4980    1.0000 </r>
       <r>    6.7633    1.0000 </r>
       <r>    6.7804    1.0000 </r>
       <r>    6.7804    1.0000 </r>
       <r>    6.8426    1.0000 </r>
       <r>    7.9788    1.0000 </r>
       <r>    8.1267    1.0000 </r>
       <r>    9.5352    0.0010 </r>
       <r>    9.5352    0.0010 </r>
       <r>   16.4872    0.0000 </r>
       <r>   16.4872    0.0000 </r>
      </set>
      <set comment="kpoint 11">
       <r>   -1.7608    1.0000 </r>
       <r>    1.2642    1.0000 </r>
       <r>    1.2642    1.0000 </r>
       <r>    1.2821    1.0000 </r>
       <r>    1.7389    1.0000 </r>
       <r>    1.7389    1.0000 </r>
       <r>    1.7595    1.0000 </r>
       <r>    4.6819    1.0000 </r>
       <r>    4.8325    1.0000 </r>
       <r>    4.8527    1.0000 </r>
       <r>    7.0978    1.0000 </r>
       <r>    7.1754    1.0000 </r>
       <r>    8.5226    0.9970 </r>
       <r>    8.6521    0.9996 </r>
       <r>    8.6521    0.9996 </r>
       <r>    8.8196    1.0490 </r>
       <r>    8.9083    0.8967 </r>
       <r>    8.9083    0.8967 </r>
       <r>    9.4422    0.0040 </r>
       <r>    9.4422    0.0040 </r>
       <r>    9.4814    0.0025 </r>
       <r>   11.1363    0.0000 </r>
       <r>   11.1363    0.0000 </r>
       <r>   11.8608    0.0000 </r>
      </set>
      <set comment="kpoint 12">
       <r>   -1.6194    1.0000 </r>
       <r>    1.3234    1.0000 </r>
       <r>    1.3704    1.0000 </r>
       <r>    1.3789    1.0000 </r>
       <r>    1.7983    1.0000 </r>
       <r>    1.8331    1.0000 </r>
       <r>    1.8600    1.0000 </r>
       <r>    4.5987    1.0000 </r>
       <r>    4.8978    1.0000 </r>
       <r>    4.9239    1.0000 </r>
       <r>    7.0047    1.0000 </r>
       <r>    7.2068    1.0000 </r>
       <r>    8.0114    1.0000 </r>
       <r>    8.0220    1.0000 </r>
       <r>    8.3596    0.9999 </r>
       <r>    8.6629    1.0017 </r>
       <r>    8.7444    1.0329 </r>
       <r>    8.8344    1.0414 </r>
       <r>    9.2764   -0.0182 </r>
       <r>    9.4387    0.0041 </r>
       <r>    9.4506    0.0037 </r>
       <r>   10.6171    0.0000 </r>
       <r>   11.8287    0.0000 </r>
       <r>   12.4693    0.0000 </r>
      </set>
      <set comment="kpoint 13">
       <r>   -1.4102    1.0000 </r>
       <r>    1.4039    1.0000 </r>
       <r>    1.5204    1.0000 </r>
       <r>    1.5248    1.0000 </r>
       <r>    1.8866    1.0000 </r>
       <r>    1.9738    1.0000 </r>
       <r>    2.0090    1.0000 </r>
       <r>    4.4665    1.0000 </r>
       <r>    5.0082    1.0000 </r>
       <r>    5.0295    1.0000 </r>
       <r>    6.8561    1.0000 </r>
       <r>    7.2699    1.0000 </r>
       <r>    7.3796    1.0000 </r>
       <r>    7.4300    1.0000 </r>
       <r>    7.9518    1.0000 </r>
       <r>    8.4376    0.9992 </r>
       <r>    8.5165    0.9972 </r>
       <r>    8.6866    1.0082 </r>
       <r>    9.0680    0.1497 </r>
       <r>    9.4357    0.0042 </r>
       <r>    9.4363    0.0042 </r>
       <r>   10.0308    0.0000 </r>
       <r>   12.5474    0.0000 </r>
       <r>   13.1603    0.0000 </r>
      </set>
      <set comment="kpoint 14">
       <r>   -1.1373    1.0000 </r>
       <r>    1.4938    1.0000 </r>
       <r>    1.7021    1.0000 </r>
       <r>    1.7211    1.0000 </r>
       <r>    2.0027    1.0000 </r>
       <r>    2.1603    1.0000 </r>
       <r>    2.2035    1.0000 </r>
       <r>    4.2964    1.0000 </r>
       <r>    5.1576    1.0000 </r>
       <r>    5.1671    1.0000 </r>
       <r>    6.6713    1.0000 </r>
       <r>    6.7530    1.0000 </r>
       <r>    6.8346    1.0000 </r>
       <r>    7.3552    1.0000 </r>
       <r>    7.4499    1.0000 </r>
       <r>    8.1535    1.0000 </r>
       <r>    8.2298    1.0000 </r>
       <r>    8.4515    0.9990 </r>
       <r>    8.8420    1.0352 </r>
       <r>    9.4295    0.0044 </r>
       <r>    9.4336    0.0043 </r>
       <r>    9.4777    0.0026 </r>
       <r>   13.2632    0.0000 </r>
       <r>   13.8853    0.0000 </r>
      </set>
      <set comment="kpoint 15">
       <r>   -0.8066    1.0000 </r>
       <r>    1.5746    1.0000 </r>
       <r>    1.9172    1.0000 </r>
       <r>    1.9492    1.0000 </r>
       <r>    2.1450    1.0000 </r>
       <r>    2.3913    1.0000 </r>
       <r>    2.4387    1.0000 </r>
       <r>    4.0972    1.0000 </r>
       <r>    5.3278    1.0000 </r>
       <r>    5.3450    1.0000 </r>
       <r>    6.1516    1.0000 </r>
       <r>    6.2483    1.0000 </r>
       <r>    6.4698    1.0000 </r>
       <r>    6.9001    1.0000 </r>
       <r>    7.4599    1.0000 </r>
       <r>    7.8292    1.0000 </r>
       <r>    7.9020    1.0000 </r>
       <r>    8.1444    1.0000 </r>
       <r>    8.5609    0.9956 </r>
       <r>    9.0402    0.2686 </r>
       <r>    9.4264    0.0045 </r>
       <r>    9.4320    0.0043 </r>
       <r>   13.9544    0.0000 </r>
       <r>   14.6188    0.0000 </r>
      </set>
      <set comment="kpoint 16">
       <r>   -0.4273    1.0000 </r>
       <r>    1.6181    1.0000 </r>
       <r>    2.1548    1.0000 </r>
       <r>    2.1940    1.0000 </r>
       <r>    2.3117    1.0000 </r>
       <r>    2.6650    1.0000 </r>
       <r>    2.7080    1.0000 </r>
       <r>    3.8768    1.0000 </r>
       <r>    5.4931    1.0000 </r>
       <r>    5.5650    1.0000 </r>
       <r>    5.5809    1.0000 </r>
       <r>    5.6827    1.0000 </r>
       <r>    6.2888    1.0000 </r>
       <r>    6.3671    1.0000 </r>
       <r>    7.4917    1.0000 </r>
       <r>    7.5586    1.0000 </r>
       <r>    7.5817    1.0000 </r>
       <r>    7.7987    1.0000 </r>
       <r>    8.1783    1.0000 </r>
       <r>    8.7565    1.0386 </r>
       <r>    9.4253    0.0045 </r>
       <r>    9.4308    0.0043 </r>
       <r>   14.5942    0.0000 </r>
       <r>   15.3369    0.0000 </r>
      </set>
      <set comment="kpoint 17">
       <r>   -0.0127    1.0000 </r>
       <r>    1.5879    1.0000 </r>
       <r>    2.3954    1.0000 </r>
       <r>    2.4319    1.0000 </r>
       <r>    2.5001    1.0000 </r>
       <r>    2.9795    1.0000 </r>
       <r>    3.0049    1.0000 </r>
       <r>    3.6431    1.0000 </r>
       <r>    5.0456    1.0000 </r>
       <r>    5.1444    1.0000 </r>
       <r>    5.5901    1.0000 </r>
       <r>    5.8167    1.0000 </r>
       <r>    5.9198    1.0000 </r>
       <r>    6.2190    1.0000 </r>
       <r>    7.1771    1.0000 </r>
       <r>    7.2334    1.0000 </r>
       <r>    7.4390    1.0000 </r>
       <r>    7.7185    1.0000 </r>
       <r>    7.7577    1.0000 </r>
       <r>    8.5507    0.9959 </r>
       <r>    9.4253    0.0045 </r>
       <r>    9.4298    0.0044 </r>
       <r>   15.1443    0.0000 </r>
       <r>   15.9642    0.0000 </r>
      </set>
      <set comment="kpoint 18">
       <r>    0.4167    1.0000 </r>
       <r>    1.4489    1.0000 </r>
       <r>    2.6041    1.0000 </r>
       <r>    2.6283    1.0000 </r>
       <r>    2.7074    1.0000 </r>
       <r>    3.3285    1.0000 </r>
       <r>    3.3333    1.0000 </r>
       <r>    3.4032    1.0000 </r>
       <r>    4.5502    1.0000 </r>
       <r>    4.6384    1.0000 </r>
       <r>    5.5485    1.0000 </r>
       <r>    5.6146    1.0000 </r>
       <r>    6.0973    1.0000 </r>
       <r>    6.3565    1.0000 </r>
       <r>    6.9301    1.0000 </r>
       <r>    6.9689    1.0000 </r>
       <r>    7.0806    1.0000 </r>
       <r>    7.3490    1.0000 </r>
       <r>    7.8678    1.0000 </r>
       <r>    8.3680    0.9998 </r>
       <r>    9.4259    0.0045 </r>
       <r>    9.4288    0.0044 </r>
       <r>   15.5628    0.0000 </r>
       <r>   16.1310    0.0000 </r>
      </set>
      <set comment="kpoint 19">
       <r>    0.8308    1.0000 </r>
       <r>    1.1890    1.0000 </r>
       <r>    2.7318    1.0000 </r>
       <r>    2.7398    1.0000 </r>
       <r>    2.9300    1.0000 </r>
       <r>    3.1635    1.0000 </r>
       <r>    3.6844    1.0000 </r>
       <r>    3.7226    1.0000 </r>
       <r>    4.1034    1.0000 </r>
       <r>    4.1705    1.0000 </r>
       <r>    5.4723    1.0000 </r>
       <r>    5.4734    1.0000 </r>
       <r>    6.4040    1.0000 </r>
       <r>    6.6303    1.0000 </r>
       <r>    6.7333    1.0000 </r>
       <r>    6.7977    1.0000 </r>
       <r>    6.8118    1.0000 </r>
       <r>    6.9692    1.0000 </r>
       <r>    8.0271    1.0000 </r>
       <r>    8.1943    1.0000 </r>
       <r>    9.4268    0.0045 </r>
       <r>    9.4278    0.0044 </r>
       <r>   15.8402    0.0000 </r>
       <r>   16.0184    0.0000 </r>
      </set>
      <set comment="kpoint 20">
       <r>   -1.4807    1.0000 </r>
       <r>    1.4308    1.0000 </r>
       <r>    1.4308    1.0000 </r>
       <r>    1.4596    1.0000 </r>
       <r>    1.8910    1.0000 </r>
       <r>    1.8910    1.0000 </r>
       <r>    1.9701    1.0000 </r>
       <r>    4.5457    1.0000 </r>
       <r>    4.9375    1.0000 </r>
       <r>    4.9843    1.0000 </r>
       <r>    6.9635    1.0000 </r>
       <r>    7.2008    1.0000 </r>
       <r>    7.6588    1.0000 </r>
       <r>    7.7214    1.0000 </r>
       <r>    7.7214    1.0000 </r>
       <r>    8.5160    0.9972 </r>
       <r>    8.7017    1.0136 </r>
       <r>    8.7017    1.0136 </r>
       <r>    9.2656   -0.0231 </r>
       <r>    9.2656   -0.0231 </r>
       <r>    9.3636    0.0037 </r>
       <r>   11.2942    0.0000 </r>
       <r>   11.2942    0.0000 </r>
       <r>   12.9841    0.0000 </r>
      </set>
      <set comment="kpoint 21">
       <r>   -1.2757    1.0000 </r>
       <r>    1.5129    1.0000 </r>
       <r>    1.5805    1.0000 </r>
       <r>    1.5870    1.0000 </r>
       <r>    1.9769    1.0000 </r>
       <r>    2.0293    1.0000 </r>
       <r>    2.1296    1.0000 </r>
       <r>    4.4387    1.0000 </r>
       <r>    5.0290    1.0000 </r>
       <r>    5.0724    1.0000 </r>
       <r>    6.8491    1.0000 </r>
       <r>    7.0903    1.0000 </r>
       <r>    7.1952    1.0000 </r>
       <r>    7.2521    1.0000 </r>
       <r>    7.3303    1.0000 </r>
       <r>    8.3105    1.0000 </r>
       <r>    8.5007    0.9977 </r>
       <r>    8.5849    0.9951 </r>
       <r>    9.0401    0.2691 </r>
       <r>    9.2549   -0.0281 </r>
       <r>    9.3040   -0.0077 </r>
       <r>   10.6866    0.0000 </r>
       <r>   11.9800    0.0000 </r>
       <r>   13.6074    0.0000 </r>
      </set>
      <set comment="kpoint 22">
       <r>   -1.0080    1.0000 </r>
       <r>    1.6048    1.0000 </r>
       <r>    1.7404    1.0000 </r>
       <r>    1.7860    1.0000 </r>
       <r>    2.0899    1.0000 </r>
       <r>    2.2126    1.0000 </r>
       <r>    2.3319    1.0000 </r>
       <r>    4.2867    1.0000 </r>
       <r>    5.1679    1.0000 </r>
       <r>    5.1837    1.0000 </r>
       <r>    6.4807    1.0000 </r>
       <r>    6.6788    1.0000 </r>
       <r>    6.6887    1.0000 </r>
       <r>    6.8782    1.0000 </r>
       <r>    7.3450    1.0000 </r>
       <r>    8.0519    1.0000 </r>
       <r>    8.2398    1.0000 </r>
       <r>    8.3779    0.9998 </r>
       <r>    8.7891    1.0501 </r>
       <r>    9.2468   -0.0320 </r>
       <r>    9.2679   -0.0220 </r>
       <r>   10.0961    0.0000 </r>
       <r>   12.6499    0.0000 </r>
       <r>   14.2848    0.0000 </r>
      </set>
      <set comment="kpoint 23">
       <r>   -0.6837    1.0000 </r>
       <r>    1.6875    1.0000 </r>
       <r>    1.9368    1.0000 </r>
       <r>    2.0179    1.0000 </r>
       <r>    2.2282    1.0000 </r>
       <r>    2.4394    1.0000 </r>
       <r>    2.5678    1.0000 </r>
       <r>    4.1018    1.0000 </r>
       <r>    5.3041    1.0000 </r>
       <r>    5.3493    1.0000 </r>
       <r>    5.8994    1.0000 </r>
       <r>    6.1466    1.0000 </r>
       <r>    6.4015    1.0000 </r>
       <r>    6.5170    1.0000 </r>
       <r>    7.4664    1.0000 </r>
       <r>    7.7541    1.0000 </r>
       <r>    7.9350    1.0000 </r>
       <r>    8.0908    1.0000 </r>
       <r>    8.5114    0.9974 </r>
       <r>    9.2409   -0.0349 </r>
       <r>    9.2469   -0.0319 </r>
       <r>    9.5801    0.0004 </r>
       <r>   13.2844    0.0000 </r>
       <r>   14.9825    0.0000 </r>
      </set>
      <set comment="kpoint 24">
       <r>   -0.3112    1.0000 </r>
       <r>    1.7319    1.0000 </r>
       <r>    2.1636    1.0000 </r>
       <r>    2.2680    1.0000 </r>
       <r>    2.3899    1.0000 </r>
       <r>    2.7074    1.0000 </r>
       <r>    2.8245    1.0000 </r>
       <r>    3.8939    1.0000 </r>
       <r>    5.3519    1.0000 </r>
       <r>    5.4053    1.0000 </r>
       <r>    5.5657    1.0000 </r>
       <r>    5.6195    1.0000 </r>
       <r>    5.9487    1.0000 </r>
       <r>    6.3830    1.0000 </r>
       <r>    7.4420    1.0000 </r>
       <r>    7.6092    1.0000 </r>
       <r>    7.6106    1.0000 </r>
       <r>    7.7570    1.0000 </r>
       <r>    8.1843    1.0000 </r>
       <r>    9.1678   -0.0483 </r>
       <r>    9.2352   -0.0375 </r>
       <r>    9.2364   -0.0370 </r>
       <r>   13.8615    0.0000 </r>
       <r>   15.6428    0.0000 </r>
      </set>
      <set comment="kpoint 25">
       <r>    0.0967    1.0000 </r>
       <r>    1.7001    1.0000 </r>
       <r>    2.4080    1.0000 </r>
       <r>    2.5132    1.0000 </r>
       <r>    2.5724    1.0000 </r>
       <r>    3.0140    1.0000 </r>
       <r>    3.0879    1.0000 </r>
       <r>    3.6716    1.0000 </r>
       <r>    4.8441    1.0000 </r>
       <r>    5.1101    1.0000 </r>
       <r>    5.4301    1.0000 </r>
       <r>    5.5767    1.0000 </r>
       <r>    5.8144    1.0000 </r>
       <r>    6.3629    1.0000 </r>
       <r>    7.1515    1.0000 </r>
       <r>    7.2934    1.0000 </r>
       <r>    7.4058    1.0000 </r>
       <r>    7.7741    1.0000 </r>
       <r>    7.8131    1.0000 </r>
       <r>    8.8488    1.0282 </r>
       <r>    9.2292   -0.0402 </r>
       <r>    9.2328   -0.0386 </r>
       <r>   14.3589    0.0000 </r>
       <r>   15.7303    0.0000 </r>
      </set>
      <set comment="kpoint 26">
       <r>    0.5207    1.0000 </r>
       <r>    1.5567    1.0000 </r>
       <r>    2.6402    1.0000 </r>
       <r>    2.7167    1.0000 </r>
       <r>    2.7727    1.0000 </r>
       <r>    3.3496    1.0000 </r>
       <r>    3.3562    1.0000 </r>
       <r>    3.4422    1.0000 </r>
       <r>    4.3849    1.0000 </r>
       <r>    4.6270    1.0000 </r>
       <r>    5.3358    1.0000 </r>
       <r>    5.3619    1.0000 </r>
       <r>    6.0913    1.0000 </r>
       <r>    6.4982    1.0000 </r>
       <r>    6.9286    1.0000 </r>
       <r>    7.0272    1.0000 </r>
       <r>    7.0551    1.0000 </r>
       <r>    7.4309    1.0000 </r>
       <r>    7.9543    1.0000 </r>
       <r>    8.5884    0.9951 </r>
       <r>    9.2267   -0.0413 </r>
       <r>    9.2299   -0.0399 </r>
       <r>   14.7617    0.0000 </r>
       <r>   15.5302    0.0000 </r>
      </set>
      <set comment="kpoint 27">
       <r>    0.9322    1.0000 </r>
       <r>    1.2920    1.0000 </r>
       <r>    2.8012    1.0000 </r>
       <r>    2.8282    1.0000 </r>
       <r>    2.9874    1.0000 </r>
       <r>    3.2122    1.0000 </r>
       <r>    3.6229    1.0000 </r>
       <r>    3.7172    1.0000 </r>
       <r>    4.0025    1.0000 </r>
       <r>    4.1804    1.0000 </r>
       <r>    5.2435    1.0000 </r>
       <r>    5.2723    1.0000 </r>
       <r>    6.3927    1.0000 </r>
       <r>    6.7153    1.0000 </r>
       <r>    6.7485    1.0000 </r>
       <r>    6.8208    1.0000 </r>
       <r>    6.8567    1.0000 </r>
       <r>    7.0683    1.0000 </r>
       <r>    8.1494    1.0000 </r>
       <r>    8.3594    0.9999 </r>
       <r>    9.2265   -0.0414 </r>
       <r>    9.2277   -0.0409 </r>
       <r>   15.0732    0.0000 </r>
       <r>   15.3181    0.0000 </r>
      </set>
      <set comment="kpoint 28">
       <r>   -1.0767    1.0000 </r>
       <r>    1.6718    1.0000 </r>
       <r>    1.6718    1.0000 </r>
       <r>    1.6764    1.0000 </r>
       <r>    2.1118    1.0000 </r>
       <r>    2.1118    1.0000 </r>
       <r>    2.2987    1.0000 </r>
       <r>    4.3689    1.0000 </r>
       <r>    5.0922    1.0000 </r>
       <r>    5.1342    1.0000 </r>
       <r>    6.7230    1.0000 </r>
       <r>    6.7230    1.0000 </r>
       <r>    6.7877    1.0000 </r>
       <r>    6.8561    1.0000 </r>
       <r>    7.2834    1.0000 </r>
       <r>    8.1297    1.0000 </r>
       <r>    8.4208    0.9995 </r>
       <r>    8.4208    0.9995 </r>
       <r>    9.0131    0.4031 </r>
       <r>    9.0131    0.4031 </r>
       <r>    9.1865   -0.0516 </r>
       <r>   11.3405    0.0000 </r>
       <r>   11.3405    0.0000 </r>
       <r>   14.1726    0.0000 </r>
      </set>
      <set comment="kpoint 29">
       <r>   -0.8169    1.0000 </r>
       <r>    1.7669    1.0000 </r>
       <r>    1.8106    1.0000 </r>
       <r>    1.8746    1.0000 </r>
       <r>    2.2200    1.0000 </r>
       <r>    2.2903    1.0000 </r>
       <r>    2.5061    1.0000 </r>
       <r>    4.2515    1.0000 </r>
       <r>    5.2064    1.0000 </r>
       <r>    5.2104    1.0000 </r>
       <r>    6.1397    1.0000 </r>
       <r>    6.3118    1.0000 </r>
       <r>    6.4427    1.0000 </r>
       <r>    6.6695    1.0000 </r>
       <r>    7.3783    1.0000 </r>
       <r>    7.9022    1.0000 </r>
       <r>    8.1956    1.0000 </r>
       <r>    8.2566    1.0000 </r>
       <r>    8.7364    1.0291 </r>
       <r>    8.9936    0.5056 </r>
       <r>    9.0996    0.0477 </r>
       <r>   10.7144    0.0000 </r>
       <r>   11.9738    0.0000 </r>
       <r>   14.8039    0.0000 </r>
      </set>
      <set comment="kpoint 30">
       <r>   -0.5021    1.0000 </r>
       <r>    1.8526    1.0000 </r>
       <r>    1.9833    1.0000 </r>
       <r>    2.1120    1.0000 </r>
       <r>    2.3523    1.0000 </r>
       <r>    2.5109    1.0000 </r>
       <r>    2.7387    1.0000 </r>
       <r>    4.0948    1.0000 </r>
       <r>    5.2819    1.0000 </r>
       <r>    5.3724    1.0000 </r>
       <r>    5.5863    1.0000 </r>
       <r>    5.8918    1.0000 </r>
       <r>    5.9884    1.0000 </r>
       <r>    6.5332    1.0000 </r>
       <r>    7.5206    1.0000 </r>
       <r>    7.6387    1.0000 </r>
       <r>    7.9233    1.0000 </r>
       <r>    8.0078    1.0000 </r>
       <r>    8.4397    0.9992 </r>
       <r>    8.9803    0.5757 </r>
       <r>    9.0408    0.2655 </r>
       <r>   10.1496    0.0000 </r>
       <r>   12.5702    0.0000 </r>
       <r>   15.4429    0.0000 </r>
      </set>
      <set comment="kpoint 31">
       <r>   -0.1400    1.0000 </r>
       <r>    1.8983    1.0000 </r>
       <r>    2.1923    1.0000 </r>
       <r>    2.3704    1.0000 </r>
       <r>    2.5065    1.0000 </r>
       <r>    2.7706    1.0000 </r>
       <r>    2.9794    1.0000 </r>
       <r>    3.9103    1.0000 </r>
       <r>    5.0682    1.0000 </r>
       <r>    5.3233    1.0000 </r>
       <r>    5.5058    1.0000 </r>
       <r>    5.5195    1.0000 </r>
       <r>    5.5783    1.0000 </r>
       <r>    6.4344    1.0000 </r>
       <r>    7.3603    1.0000 </r>
       <r>    7.6245    1.0000 </r>
       <r>    7.6968    1.0000 </r>
       <r>    7.6994    1.0000 </r>
       <r>    8.1191    1.0000 </r>
       <r>    8.9710    0.6237 </r>
       <r>    9.0031    0.4555 </r>
       <r>    9.6681    0.0000 </r>
       <r>   13.1131    0.0000 </r>
       <r>   15.3771    0.0000 </r>
      </set>
      <set comment="kpoint 32">
       <r>    0.2572    1.0000 </r>
       <r>    1.8636    1.0000 </r>
       <r>    2.4311    1.0000 </r>
       <r>    2.6274    1.0000 </r>
       <r>    2.6798    1.0000 </r>
       <r>    3.0652    1.0000 </r>
       <r>    3.2058    1.0000 </r>
       <r>    3.7080    1.0000 </r>
       <r>    4.5928    1.0000 </r>
       <r>    5.0544    1.0000 </r>
       <r>    5.2052    1.0000 </r>
       <r>    5.2940    1.0000 </r>
       <r>    5.8192    1.0000 </r>
       <r>    6.4350    1.0000 </r>
       <r>    7.1017    1.0000 </r>
       <r>    7.3270    1.0000 </r>
       <r>    7.3641    1.0000 </r>
       <r>    7.7737    1.0000 </r>
       <r>    7.8993    1.0000 </r>
       <r>    8.9645    0.6565 </r>
       <r>    8.9800    0.5773 </r>
       <r>    9.2678   -0.0220 </r>
       <r>   13.5877    0.0000 </r>
       <r>   15.0938    0.0000 </r>
      </set>
      <set comment="kpoint 33">
       <r>    0.6724    1.0000 </r>
       <r>    1.7127    1.0000 </r>
       <r>    2.6817    1.0000 </r>
       <r>    2.8448    1.0000 </r>
       <r>    2.8692    1.0000 </r>
       <r>    3.3880    1.0000 </r>
       <r>    3.3961    1.0000 </r>
       <r>    3.4962    1.0000 </r>
       <r>    4.1762    1.0000 </r>
       <r>    4.6063    1.0000 </r>
       <r>    5.0341    1.0000 </r>
       <r>    5.1932    1.0000 </r>
       <r>    6.0891    1.0000 </r>
       <r>    6.5607    1.0000 </r>
       <r>    6.9094    1.0000 </r>
       <r>    7.0253    1.0000 </r>
       <r>    7.0668    1.0000 </r>
       <r>    7.4199    1.0000 </r>
       <r>    8.1239    1.0000 </r>
       <r>    8.9304    0.8138 </r>
       <r>    8.9604    0.6770 </r>
       <r>    8.9668    0.6448 </r>
       <r>   13.9861    0.0000 </r>
       <r>   14.8381    0.0000 </r>
      </set>
      <set comment="kpoint 34">
       <r>    1.0793    1.0000 </r>
       <r>    1.4409    1.0000 </r>
       <r>    2.8918    1.0000 </r>
       <r>    2.9571    1.0000 </r>
       <r>    3.0714    1.0000 </r>
       <r>    3.2820    1.0000 </r>
       <r>    3.5575    1.0000 </r>
       <r>    3.6743    1.0000 </r>
       <r>    3.9087    1.0000 </r>
       <r>    4.1891    1.0000 </r>
       <r>    5.0017    1.0000 </r>
       <r>    5.0740    1.0000 </r>
       <r>    6.3827    1.0000 </r>
       <r>    6.6959    1.0000 </r>
       <r>    6.7875    1.0000 </r>
       <r>    6.8301    1.0000 </r>
       <r>    6.8876    1.0000 </r>
       <r>    7.0829    1.0000 </r>
       <r>    8.3687    0.9998 </r>
       <r>    8.6354    0.9972 </r>
       <r>    8.9588    0.6848 </r>
       <r>    8.9605    0.6765 </r>
       <r>   14.3132    0.0000 </r>
       <r>   14.5878    0.0000 </r>
      </set>
      <set comment="kpoint 35">
       <r>   -0.5677    1.0000 </r>
       <r>    1.9173    1.0000 </r>
       <r>    1.9744    1.0000 </r>
       <r>    1.9744    1.0000 </r>
       <r>    2.3922    1.0000 </r>
       <r>    2.3922    1.0000 </r>
       <r>    2.7129    1.0000 </r>
       <r>    4.1777    1.0000 </r>
       <r>    5.2401    1.0000 </r>
       <r>    5.2931    1.0000 </r>
       <r>    5.7665    1.0000 </r>
       <r>    5.7665    1.0000 </r>
       <r>    6.1346    1.0000 </r>
       <r>    6.5953    1.0000 </r>
       <r>    7.4821    1.0000 </r>
       <r>    7.7096    1.0000 </r>
       <r>    8.0745    1.0000 </r>
       <r>    8.0745    1.0000 </r>
       <r>    8.6977    1.0120 </r>
       <r>    8.6977    1.0120 </r>
       <r>    8.9552    0.7026 </r>
       <r>   11.3149    0.0000 </r>
       <r>   11.3149    0.0000 </r>
       <r>   15.3762    0.0000 </r>
      </set>
      <set comment="kpoint 36">
       <r>   -0.2654    1.0000 </r>
       <r>    2.0628    1.0000 </r>
       <r>    2.0644    1.0000 </r>
       <r>    2.2186    1.0000 </r>
       <r>    2.5166    1.0000 </r>
       <r>    2.6048    1.0000 </r>
       <r>    2.9374    1.0000 </r>
       <r>    4.0633    1.0000 </r>
       <r>    5.2495    1.0000 </r>
       <r>    5.2644    1.0000 </r>
       <r>    5.3962    1.0000 </r>
       <r>    5.4301    1.0000 </r>
       <r>    5.7727    1.0000 </r>
       <r>    6.4927    1.0000 </r>
       <r>    7.4836    1.0000 </r>
       <r>    7.6495    1.0000 </r>
       <r>    7.8408    1.0000 </r>
       <r>    7.8713    1.0000 </r>
       <r>    8.3782    0.9998 </r>
       <r>    8.6727    1.0041 </r>
       <r>    8.8441    1.0331 </r>
       <r>   10.7139    0.0000 </r>
       <r>   11.8827    0.0000 </r>
       <r>   15.1686    0.0000 </r>
      </set>
      <set comment="kpoint 37">
       <r>    0.0824    1.0000 </r>
       <r>    2.1114    1.0000 </r>
       <r>    2.2470    1.0000 </r>
       <r>    2.4870    1.0000 </r>
       <r>    2.6606    1.0000 </r>
       <r>    2.8543    1.0000 </r>
       <r>    3.1595    1.0000 </r>
       <r>    3.9156    1.0000 </r>
       <r>    4.7664    1.0000 </r>
       <r>    5.0707    1.0000 </r>
       <r>    5.2563    1.0000 </r>
       <r>    5.3788    1.0000 </r>
       <r>    5.6147    1.0000 </r>
       <r>    6.4157    1.0000 </r>
       <r>    7.2425    1.0000 </r>
       <r>    7.5751    1.0000 </r>
       <r>    7.6013    1.0000 </r>
       <r>    7.8626    1.0000 </r>
       <r>    8.0439    1.0000 </r>
       <r>    8.6571    1.0005 </r>
       <r>    8.7647    1.0422 </r>
       <r>   10.1880    0.0000 </r>
       <r>   12.4039    0.0000 </r>
       <r>   14.7877    0.0000 </r>
      </set>
      <set comment="kpoint 38">
       <r>    0.4649    1.0000 </r>
       <r>    2.0715    1.0000 </r>
       <r>    2.4679    1.0000 </r>
       <r>    2.7606    1.0000 </r>
       <r>    2.8212    1.0000 </r>
       <r>    3.1336    1.0000 </r>
       <r>    3.3509    1.0000 </r>
       <r>    3.7446    1.0000 </r>
       <r>    4.3255    1.0000 </r>
       <r>    4.8404    1.0000 </r>
       <r>    4.9731    1.0000 </r>
       <r>    5.1862    1.0000 </r>
       <r>    5.8390    1.0000 </r>
       <r>    6.4210    1.0000 </r>
       <r>    7.0187    1.0000 </r>
       <r>    7.2937    1.0000 </r>
       <r>    7.3028    1.0000 </r>
       <r>    7.6985    1.0000 </r>
       <r>    8.1086    1.0000 </r>
       <r>    8.6480    0.9989 </r>
       <r>    8.7110    1.0174 </r>
       <r>    9.7355    0.0000 </r>
       <r>   12.8667    0.0000 </r>
       <r>   14.4628    0.0000 </r>
      </set>
      <set comment="kpoint 39">
       <r>    0.8669    1.0000 </r>
       <r>    1.9092    1.0000 </r>
       <r>    2.7193    1.0000 </r>
       <r>    2.9951    1.0000 </r>
       <r>    3.0032    1.0000 </r>
       <r>    3.4243    1.0000 </r>
       <r>    3.4776    1.0000 </r>
       <r>    3.5598    1.0000 </r>
       <r>    3.9535    1.0000 </r>
       <r>    4.5725    1.0000 </r>
       <r>    4.7440    1.0000 </r>
       <r>    5.0544    1.0000 </r>
       <r>    6.0937    1.0000 </r>
       <r>    6.5349    1.0000 </r>
       <r>    6.8578    1.0000 </r>
       <r>    6.9762    1.0000 </r>
       <r>    7.0568    1.0000 </r>
       <r>    7.3530    1.0000 </r>
       <r>    8.3803    0.9998 </r>
       <r>    8.6444    0.9983 </r>
       <r>    8.6767    1.0052 </r>
       <r>    9.3427    0.0013 </r>
       <r>   13.2655    0.0000 </r>
       <r>   14.1759    0.0000 </r>
      </set>
      <set comment="kpoint 40">
       <r>    1.2657    1.0000 </r>
       <r>    1.6277    1.0000 </r>
       <r>    2.9766    1.0000 </r>
       <r>    3.1208    1.0000 </r>
       <r>    3.1791    1.0000 </r>
       <r>    3.3691    1.0000 </r>
       <r>    3.5219    1.0000 </r>
       <r>    3.5566    1.0000 </r>
       <r>    3.8753    1.0000 </r>
       <r>    4.1928    1.0000 </r>
       <r>    4.7784    1.0000 </r>
       <r>    4.9004    1.0000 </r>
       <r>    6.3709    1.0000 </r>
       <r>    6.6660    1.0000 </r>
       <r>    6.7456    1.0000 </r>
       <r>    6.8043    1.0000 </r>
       <r>    6.8771    1.0000 </r>
       <r>    7.0272    1.0000 </r>
       <r>    8.6467    0.9987 </r>
       <r>    8.6566    1.0004 </r>
       <r>    8.6748    1.0046 </r>
       <r>    8.9934    0.5068 </r>
       <r>   13.6046    0.0000 </r>
       <r>   13.8996    0.0000 </r>
      </set>
      <set comment="kpoint 41">
       <r>    0.0213    1.0000 </r>
       <r>    2.1784    1.0000 </r>
       <r>    2.3145    1.0000 </r>
       <r>    2.3145    1.0000 </r>
       <r>    2.7194    1.0000 </r>
       <r>    2.7194    1.0000 </r>
       <r>    3.1482    1.0000 </r>
       <r>    3.9984    1.0000 </r>
       <r>    4.9248    1.0000 </r>
       <r>    4.9248    1.0000 </r>
       <r>    5.2440    1.0000 </r>
       <r>    5.5045    1.0000 </r>
       <r>    5.5340    1.0000 </r>
       <r>    6.4131    1.0000 </r>
       <r>    7.2954    1.0000 </r>
       <r>    7.6792    1.0000 </r>
[...]
       <r>    9.5478    0.0008 </r>
       <r>    9.9695    0.0000 </r>
       <r>    9.9695    0.0000 </r>
       <r>   10.2952    0.0000 </r>
      </set>
      <set comment="kpoint 217">
       <r>    0.9696    1.0000 </r>
       <r>    1.1562    1.0000 </r>
       <r>    1.1562    1.0000 </r>
       <r>    1.1562    1.0000 </r>
       <r>    4.5292    1.0000 </r>
       <r>    4.5292    1.0000 </r>
       <r>    4.5292    1.0000 </r>
       <r>    4.7581    1.0000 </r>
       <r>    4.7581    1.0000 </r>
       <r>    4.8705    1.0000 </r>
       <r>    4.8705    1.0000 </r>
       <r>    4.8705    1.0000 </r>
       <r>    7.0988    1.0000 </r>
       <r>    7.0988    1.0000 </r>
       <r>    7.0988    1.0000 </r>
       <r>    7.3572    1.0000 </r>
       <r>    8.8145    1.0504 </r>
       <r>    8.8145    1.0504 </r>
       <r>    9.0640    0.1655 </r>
       <r>    9.0640    0.1655 </r>
       <r>    9.0640    0.1655 </r>
       <r>   10.2090    0.0000 </r>
       <r>   10.2090    0.0000 </r>
       <r>   10.2090    0.0000 </r>
      </set>
      <set comment="kpoint 218">
       <r>    0.9901    1.0000 </r>
       <r>    1.0525    1.0000 </r>
       <r>    1.1133    1.0000 </r>
       <r>    1.1133    1.0000 </r>
       <r>    4.5620    1.0000 </r>
       <r>    4.5620    1.0000 </r>
       <r>    4.6308    1.0000 </r>
       <r>    4.7081    1.0000 </r>
       <r>    4.7563    1.0000 </r>
       <r>    4.7940    1.0000 </r>
       <r>    4.8213    1.0000 </r>
       <r>    4.8213    1.0000 </r>
       <r>    7.3424    1.0000 </r>
       <r>    7.3424    1.0000 </r>
       <r>    7.3833    1.0000 </r>
       <r>    7.5289    1.0000 </r>
       <r>    8.9616    0.6713 </r>
       <r>    9.0250    0.3420 </r>
       <r>    9.0285    0.3246 </r>
       <r>    9.0285    0.3246 </r>
       <r>    9.0461    0.2413 </r>
       <r>    9.5540    0.0007 </r>
       <r>   10.1364    0.0000 </r>
       <r>   10.1364    0.0000 </r>
      </set>
      <set comment="kpoint 219">
       <r>    0.9874    1.0000 </r>
       <r>    1.0286    1.0000 </r>
       <r>    1.0286    1.0000 </r>
       <r>    1.0489    1.0000 </r>
       <r>    4.6194    1.0000 </r>
       <r>    4.6427    1.0000 </r>
       <r>    4.6427    1.0000 </r>
       <r>    4.6979    1.0000 </r>
       <r>    4.7262    1.0000 </r>
       <r>    4.7539    1.0000 </r>
       <r>    4.7539    1.0000 </r>
       <r>    4.7632    1.0000 </r>
       <r>    7.6358    1.0000 </r>
       <r>    7.6684    1.0000 </r>
       <r>    7.6684    1.0000 </r>
       <r>    7.7936    1.0000 </r>
       <r>    8.9259    0.8322 </r>
       <r>    9.0071    0.4341 </r>
       <r>    9.0071    0.4341 </r>
       <r>    9.0109    0.4144 </r>
       <r>    9.2239   -0.0425 </r>
       <r>    9.6049    0.0002 </r>
       <r>    9.6049    0.0002 </r>
       <r>    9.8130    0.0000 </r>
      </set>
      <set comment="kpoint 220">
       <r>    0.9626    1.0000 </r>
       <r>    0.9832    1.0000 </r>
       <r>    0.9832    1.0000 </r>
       <r>    0.9832    1.0000 </r>
       <r>    4.6723    1.0000 </r>
       <r>    4.6723    1.0000 </r>
       <r>    4.6723    1.0000 </r>
       <r>    4.6988    1.0000 </r>
       <r>    4.6988    1.0000 </r>
       <r>    4.7112    1.0000 </r>
       <r>    4.7112    1.0000 </r>
       <r>    4.7112    1.0000 </r>
       <r>    8.0531    1.0000 </r>
       <r>    8.0531    1.0000 </r>
       <r>    8.0531    1.0000 </r>
       <r>    8.1940    1.0000 </r>
       <r>    9.0219    0.3579 </r>
       <r>    9.0219    0.3579 </r>
       <r>    9.0507    0.2207 </r>
       <r>    9.0507    0.2207 </r>
       <r>    9.0507    0.2207 </r>
       <r>    9.3105   -0.0057 </r>
       <r>    9.3105   -0.0057 </r>
       <r>    9.3105   -0.0057 </r>
      </set>
     </set>
    </set>
   </array>
  </eigenvalues>
  <separator name="orbital magnetization" >
   <v name="MAGDIPOLOUT">      0.00000000      0.00000000      0.00000000</v>
  </separator>
  <dos>
   <i name="efermi">      8.99463398 </i>
   <total>
    <array>
     <dimension dim="1">gridpoints</dimension>
     <dimension dim="2">spin</dimension>
     <field>energy</field>
     <field>total</field>
     <field>integrated</field>
     <set>
      <set comment="spin 1">
       <r>    -3.9040     0.0000     0.0000 </r>
       <r>    -3.8294     0.0000     0.0000 </r>
       <r>    -3.7548     0.0000     0.0000 </r>
       <r>    -3.6801     0.0000     0.0000 </r>
       <r>    -3.6055     0.0000     0.0000 </r>
       <r>    -3.5308     0.0000     0.0000 </r>
       <r>    -3.4562     0.0000     0.0000 </r>
       <r>    -3.3816     0.0000     0.0000 </r>
       <r>    -3.3069     0.0000     0.0000 </r>
       <r>    -3.2323     0.0000     0.0000 </r>
       <r>    -3.1577     0.0000     0.0000 </r>
       <r>    -3.0830     0.0000     0.0000 </r>
       <r>    -3.0084     0.0000     0.0000 </r>
       <r>    -2.9337     0.0000     0.0000 </r>
       <r>    -2.8591     0.0000     0.0000 </r>
       <r>    -2.7845     0.0000     0.0000 </r>
       <r>    -2.7098     0.0000     0.0000 </r>
       <r>    -2.6352     0.0000     0.0000 </r>
       <r>    -2.5606     0.0000     0.0000 </r>
       <r>    -2.4859     0.0000     0.0000 </r>
       <r>    -2.4113     0.0001     0.0000 </r>
       <r>    -2.3366     0.0002     0.0000 </r>
       <r>    -2.2620     0.0003     0.0001 </r>
       <r>    -2.1874    -0.0002     0.0000 </r>
       <r>    -2.1127    -0.0021    -0.0001 </r>
       <r>    -2.0381    -0.0030    -0.0004 </r>
       <r>    -1.9635     0.0043    -0.0000 </r>
       <r>    -1.8888     0.0255     0.0019 </r>
       <r>    -1.8142     0.0572     0.0061 </r>
       <r>    -1.7395     0.0892     0.0128 </r>
       <r>    -1.6649     0.1134     0.0213 </r>
       <r>    -1.5903     0.1300     0.0310 </r>
       <r>    -1.5156     0.1470     0.0419 </r>
       <r>    -1.4410     0.1663     0.0544 </r>
       <r>    -1.3664     0.1785     0.0677 </r>
       <r>    -1.2917     0.1857     0.0815 </r>
       <r>    -1.2171     0.2026     0.0967 </r>
       <r>    -1.1424     0.2274     0.1136 </r>
       <r>    -1.0678     0.2418     0.1317 </r>
       <r>    -0.9932     0.2388     0.1495 </r>
       <r>    -0.9185     0.2416     0.1675 </r>
       <r>    -0.8439     0.2738     0.1880 </r>
       <r>    -0.7693     0.3110     0.2112 </r>
       <r>    -0.6946     0.3119     0.2345 </r>
       <r>    -0.6200     0.2925     0.2563 </r>
       <r>    -0.5453     0.3047     0.2790 </r>
       <r>    -0.4707     0.3491     0.3051 </r>
       <r>    -0.3961     0.3799     0.3334 </r>
       <r>    -0.3214     0.3861     0.3623 </r>
       <r>    -0.2468     0.3888     0.3913 </r>
       <r>    -0.1722     0.3904     0.4204 </r>
       <r>    -0.0975     0.3972     0.4501 </r>
       <r>    -0.0229     0.4362     0.4826 </r>
       <r>     0.0517     0.4994     0.5199 </r>
       <r>     0.1264     0.5253     0.5591 </r>
       <r>     0.2010     0.4909     0.5957 </r>
       <r>     0.2757     0.4725     0.6310 </r>
       <r>     0.3503     0.5388     0.6712 </r>
       <r>     0.4249     0.6338     0.7185 </r>
       <r>     0.4996     0.6615     0.7679 </r>
       <r>     0.5742     0.6432     0.8159 </r>
       <r>     0.6488     0.6730     0.8661 </r>
       <r>     0.7235     0.7424     0.9215 </r>
       <r>     0.7981     0.7975     0.9811 </r>
       <r>     0.8728     0.9311     1.0506 </r>
       <r>     0.9474     1.2527     1.1441 </r>
       <r>     1.0220     1.6500     1.2672 </r>
       <r>     1.0967     1.9380     1.4119 </r>
       <r>     1.1713     2.1371     1.5714 </r>
       <r>     1.2459     2.3662     1.7480 </r>
       <r>     1.3206     2.6090     1.9427 </r>
       <r>     1.3952     2.8235     2.1534 </r>
       <r>     1.4699     3.0771     2.3831 </r>
       <r>     1.5445     3.4021     2.6370 </r>
       <r>     1.6191     3.7494     2.9169 </r>
       <r>     1.6938     4.1008     3.2229 </r>
       <r>     1.7684     4.4562     3.5555 </r>
       <r>     1.8430     4.8233     3.9155 </r>
       <r>     1.9177     5.1992     4.3036 </r>
       <r>     1.9923     5.4839     4.7129 </r>
       <r>     2.0670     5.5961     5.1306 </r>
       <r>     2.1416     5.5731     5.5465 </r>
       <r>     2.2162     5.4419     5.9527 </r>
       <r>     2.2909     5.2302     6.3431 </r>
       <r>     2.3655     5.0490     6.7199 </r>
       <r>     2.4401     4.9418     7.0888 </r>
       <r>     2.5148     4.8186     7.4484 </r>
       <r>     2.5894     4.7083     7.7998 </r>
       <r>     2.6641     4.7529     8.1546 </r>
       <r>     2.7387     4.8144     8.5139 </r>
       <r>     2.8133     4.5993     8.8572 </r>
       <r>     2.8880     4.2041     9.1710 </r>
       <r>     2.9626     3.8944     9.4616 </r>
       <r>     3.0372     3.5872     9.7294 </r>
       <r>     3.1119     3.2011     9.9683 </r>
       <r>     3.1865     3.0607    10.1967 </r>
       <r>     3.2612     3.4764    10.4562 </r>
       <r>     3.3358     4.2409    10.7727 </r>
       <r>     3.4104     4.7790    11.1294 </r>
       <r>     3.4851     4.8208    11.4892 </r>
       <r>     3.5597     4.6999    11.8400 </r>
       <r>     3.6343     4.7704    12.1961 </r>
       <r>     3.7090     4.9399    12.5648 </r>
       <r>     3.7836     5.0173    12.9393 </r>
       <r>     3.8583     5.0063    13.3129 </r>
       <r>     3.9329     4.9293    13.6808 </r>
       <r>     4.0075     4.8404    14.0421 </r>
       <r>     4.0822     4.9366    14.4105 </r>
       <r>     4.1568     5.2460    14.8021 </r>
       <r>     4.2314     5.4739    15.2106 </r>
       <r>     4.3061     5.4114    15.6145 </r>
       <r>     4.3807     5.2187    16.0041 </r>
       <r>     4.4554     5.2336    16.3947 </r>
       <r>     4.5300     5.5915    16.8120 </r>
       <r>     4.6046     6.0500    17.2636 </r>
       <r>     4.6793     6.2901    17.7330 </r>
       <r>     4.7539     6.3181    18.2046 </r>
       <r>     4.8285     6.3964    18.6820 </r>
       <r>     4.9032     6.6804    19.1806 </r>
       <r>     4.9778     7.1563    19.7147 </r>
       <r>     5.0524     7.8251    20.2988 </r>
       <r>     5.1271     8.5848    20.9395 </r>
       <r>     5.2017     8.9893    21.6105 </r>
       <r>     5.2764     8.5342    22.2474 </r>
       <r>     5.3510     7.2846    22.7912 </r>
       <r>     5.4256     5.9679    23.2366 </r>
       <r>     5.5003     5.2595    23.6291 </r>
       <r>     5.5749     5.0915    24.0092 </r>
       <r>     5.6495     4.9303    24.3771 </r>
       <r>     5.7242     4.6008    24.7205 </r>
       <r>     5.7988     4.3300    25.0437 </r>
       <r>     5.8735     4.1696    25.3549 </r>
       <r>     5.9481     4.0344    25.6560 </r>
       <r>     6.0227     4.0203    25.9561 </r>
       <r>     6.0974     4.1083    26.2627 </r>
       <r>     6.1720     4.0571    26.5655 </r>
       <r>     6.2466     3.9306    26.8589 </r>
       <r>     6.3213     4.0723    27.1629 </r>
       <r>     6.3959     4.4871    27.4978 </r>
       <r>     6.4706     4.8134    27.8570 </r>
       <r>     6.5452     4.8834    28.2215 </r>
       <r>     6.6198     4.9621    28.5919 </r>
       <r>     6.6945     5.3169    28.9887 </r>
       <r>     6.7691     5.7673    29.4192 </r>
       <r>     6.8437     5.9197    29.8610 </r>
       <r>     6.9184     5.6717    30.2843 </r>
       <r>     6.9930     5.1839    30.6712 </r>
       <r>     7.0677     4.6282    31.0167 </r>
       <r>     7.1423     4.2464    31.3336 </r>
       <r>     7.2169     4.2428    31.6503 </r>
       <r>     7.2916     4.4599    31.9831 </r>
       <r>     7.3662     4.5295    32.3212 </r>
       <r>     7.4408     4.3183    32.6435 </r>
       <r>     7.5155     4.0304    32.9443 </r>
       <r>     7.5901     3.9035    33.2357 </r>
       <r>     7.6648     3.9321    33.5292 </r>
       <r>     7.7394     3.9871    33.8268 </r>
       <r>     7.8140     3.9810    34.1239 </r>
       <r>     7.8887     3.8608    34.4121 </r>
       <r>     7.9633     3.7420    34.6913 </r>
       <r>     8.0379     3.8429    34.9782 </r>
       <r>     8.1126     4.0716    35.2821 </r>
       <r>     8.1872     4.1342    35.5906 </r>
       <r>     8.2619     4.0774    35.8950 </r>
       <r>     8.3365     4.1390    36.2039 </r>
       <r>     8.4111     4.2498    36.5211 </r>
       <r>     8.4858     4.3147    36.8431 </r>
       <r>     8.5604     4.5858    37.1854 </r>
       <r>     8.6350     5.2033    37.5737 </r>
       <r>     8.7097     5.8609    38.0112 </r>
       <r>     8.7843     6.3262    38.4834 </r>
       <r>     8.8590     6.8087    38.9915 </r>
       <r>     8.9336     7.3705    39.5416 </r>
       <r>     9.0082     7.4695    40.0991 </r>
       <r>     9.0829     6.7411    40.6023 </r>
       <r>     9.1575     5.6753    41.0259 </r>
       <r>     9.2321     4.8416    41.3872 </r>
       <r>     9.3068     4.1870    41.6997 </r>
       <r>     9.3814     3.5306    41.9633 </r>
       <r>     9.4561     2.8888    42.1789 </r>
       <r>     9.5307     2.2632    42.3478 </r>
       <r>     9.6053     1.7353    42.4773 </r>
       <r>     9.6800     1.4566    42.5860 </r>
       <r>     9.7546     1.3211    42.6846 </r>
       <r>     9.8292     1.0841    42.7655 </r>
       <r>     9.9039     0.7654    42.8227 </r>
       <r>     9.9785     0.5961    42.8672 </r>
       <r>    10.0531     0.7273    42.9214 </r>
       <r>    10.1278     1.1186    43.0049 </r>
       <r>    10.2024     1.4906    43.1162 </r>
       <r>    10.2771     1.4783    43.2265 </r>
       <r>    10.3517     1.0580    43.3055 </r>
       <r>    10.4263     0.6190    43.3517 </r>
       <r>    10.5010     0.5452    43.3924 </r>
       <r>    10.5756     0.8921    43.4590 </r>
       <r>    10.6502     1.3442    43.5593 </r>
       <r>    10.7249     1.4545    43.6678 </r>
       <r>    10.7995     1.1323    43.7524 </r>
       <r>    10.8742     0.7642    43.8094 </r>
       <r>    10.9488     0.7372    43.8644 </r>
       <r>    11.0234     1.0254    43.9409 </r>
       <r>    11.0981     1.2663    44.0355 </r>
       <r>    11.1727     1.1957    44.1247 </r>
       <r>    11.2473     0.9604    44.1964 </r>
       <r>    11.3220     0.8826    44.2623 </r>
       <r>    11.3966     1.0404    44.3399 </r>
       <r>    11.4713     1.2118    44.4304 </r>
       <r>    11.5459     1.1521    44.5164 </r>
       <r>    11.6205     0.8960    44.5832 </r>
       <r>    11.6952     0.7394    44.6384 </r>
       <r>    11.7698     0.8844    44.7044 </r>
       <r>    11.8444     1.1773    44.7923 </r>
       <r>    11.9191     1.2839    44.8881 </r>
       <r>    11.9937     1.1244    44.9721 </r>
       <r>    12.0684     0.9535    45.0432 </r>
       <r>    12.1430     0.9558    45.1146 </r>
       <r>    12.2176     1.0246    45.1910 </r>
       <r>    12.2923     1.0059    45.2661 </r>
       <r>    12.3669     0.9135    45.3343 </r>
       <r>    12.4415     0.8466    45.3975 </r>
       <r>    12.5162     0.8705    45.4625 </r>
       <r>    12.5908     0.9986    45.5370 </r>
       <r>    12.6655     1.1507    45.6229 </r>
       <r>    12.7401     1.1800    45.7110 </r>
       <r>    12.8147     1.0521    45.7895 </r>
       <r>    12.8894     0.8931    45.8562 </r>
       <r>    12.9640     0.8078    45.9164 </r>
       <r>    13.0386     0.8045    45.9765 </r>
       <r>    13.1133     0.8809    46.0422 </r>
       <r>    13.1879     1.0022    46.1170 </r>
       <r>    13.2626     1.0521    46.1956 </r>
       <r>    13.3372     0.9508    46.2665 </r>
       <r>    13.4118     0.7867    46.3252 </r>
       <r>    13.4865     0.7379    46.3803 </r>
       <r>    13.5611     0.8575    46.4443 </r>
       <r>    13.6357     1.0036    46.5192 </r>
       <r>    13.7104     1.0083    46.5945 </r>
       <r>    13.7850     0.8860    46.6606 </r>
       <r>    13.8597     0.7876    46.7194 </r>
       <r>    13.9343     0.7670    46.7766 </r>
       <r>    14.0089     0.7601    46.8334 </r>
       <r>    14.0836     0.7507    46.8894 </r>
       <r>    14.1582     0.7698    46.9468 </r>
       <r>    14.2328     0.8054    47.0070 </r>
       <r>    14.3075     0.8177    47.0680 </r>
       <r>    14.3821     0.7852    47.1266 </r>
       <r>    14.4568     0.7327    47.1813 </r>
       <r>    14.5314     0.7171    47.2348 </r>
       <r>    14.6060     0.7413    47.2901 </r>
       <r>    14.6807     0.7430    47.3456 </r>
       <r>    14.7553     0.7011    47.3979 </r>
       <r>    14.8299     0.6567    47.4469 </r>
       <r>    14.9046     0.6369    47.4945 </r>
       <r>    14.9792     0.6440    47.5425 </r>
       <r>    15.0539     0.6732    47.5928 </r>
       <r>    15.1285     0.6905    47.6443 </r>
       <r>    15.2031     0.6585    47.6935 </r>
       <r>    15.2778     0.5940    47.7378 </r>
       <r>    15.3524     0.5312    47.7774 </r>
       <r>    15.4270     0.4645    47.8121 </r>
       <r>    15.5017     0.3850    47.8408 </r>
       <r>    15.5763     0.3104    47.8640 </r>
       <r>    15.6509     0.2561    47.8831 </r>
       <r>    15.7256     0.2294    47.9003 </r>
       <r>    15.8002     0.2240    47.9170 </r>
       <r>    15.8749     0.2130    47.9329 </r>
       <r>    15.9495     0.1844    47.9466 </r>
       <r>    16.0241     0.1523    47.9580 </r>
       <r>    16.0988     0.1194    47.9669 </r>
       <r>    16.1734     0.0803    47.9729 </r>
       <r>    16.2480     0.0516    47.9768 </r>
       <r>    16.3227     0.0541    47.9808 </r>
       <r>    16.3973     0.0767    47.9865 </r>
       <r>    16.4720     0.0869    47.9930 </r>
       <r>    16.5466     0.0675    47.9981 </r>
       <r>    16.6212     0.0309    48.0004 </r>
       <r>    16.6959     0.0028    48.0006 </r>
       <r>    16.7705    -0.0055    48.0002 </r>
       <r>    16.8451    -0.0028    47.9999 </r>
       <r>    16.9198    -0.0000    47.9999 </r>
       <r>    16.9944     0.0005    48.0000 </r>
       <r>    17.0691     0.0002    48.0000 </r>
       <r>    17.1437     0.0001    48.0000 </r>
       <r>    17.2183     0.0000    48.0000 </r>
       <r>    17.2930     0.0000    48.0000 </r>
       <r>    17.3676     0.0000    48.0000 </r>
       <r>    17.4422     0.0000    48.0000 </r>
       <r>    17.5169     0.0000    48.0000 </r>
       <r>    17.5915     0.0000    48.0000 </r>
       <r>    17.6662     0.0000    48.0000 </r>
       <r>    17.7408     0.0000    48.0000 </r>
       <r>    17.8154     0.0000    48.0000 </r>
       <r>    17.8901     0.0000    48.0000 </r>
       <r>    17.9647     0.0000    48.0000 </r>
       <r>    18.0393     0.0000    48.0000 </r>
       <r>    18.1140     0.0000    48.0000 </r>
       <r>    18.1886     0.0000    48.0000 </r>
       <r>    18.2633     0.0000    48.0000 </r>
       <r>    18.3379     0.0000    48.0000 </r>
       <r>    18.4125     0.0000    48.0000 </r>
       <r>    18.4872     0.0000    48.0000 </r>
      </set>
     </set>
    </array>
   </total>
  </dos>
 </calculation>
 <structure name="finalpos" >
  <crystal>
   <varray name="basis" >
    <v>       3.84000000       0.00000000       0.00000000 </v>
    <v>       0.00000000       3.84000000       0.00000000 </v>
    <v>       0.00000000       0.00000000       3.84000000 </v>
   </varray>
   <i name="volume">     56.62310400 </i>
   <varray name="rec_basis" >
    <v>       0.26041667       0.00000000       0.00000000 </v>
    <v>       0.00000000       0.26041667       0.00000000 </v>
    <v>       0.00000000       0.00000000       0.26041667 </v>
   </varray>
  </crystal>
  <varray name="positions" >
   <v>       0.00000000       0.00000000       0.00000000 </v>
   <v>       0.00000000       0.50000000       0.50000000 </v>
   <v>       0.50000000       0.00000000       0.50000000 </v>
   <v>       0.50000000       0.50000000       0.00000000 </v>
  </varray>
 </structure>
</modeling>
