This job started on
Tue Jan 22 12:57:12 CET 2019
 running on   16 total cores
 distrk:  each k-point on   16 cores,    1 groups
 distr:  one band on    8 cores,    2 groups
 using from now: INCAR     
 vasp.5.4.4.18Apr17-6-g9f103f2a35 (build Apr 17 2018 18:25:23) complex          
  
 POSCAR found :  1 types and       4 ions

 ----------------------------------------------------------------------------- 
|                                                                             |
|  ADVICE TO THIS USER RUNNING 'VASP/VAMP'   (HEAR YOUR MASTER'S VOICE ...):  |
|                                                                             |
|      You enforced a specific xc-type in the INCAR file,                     |
|      a different type was found on the POTCAR file                          |
|          I HOPE YOU KNOW, WHAT YOU ARE  DOING                               |
|                                                                             |
 ----------------------------------------------------------------------------- 

 LDA part: xc-table for Ceperly-Alder, standard interpolation
 POSCAR found :  1 types and       4 ions
 POSCAR, INCAR and KPOINTS ok, starting setup
 FFT: planning ...
 WAVECAR not read
 entering main loop
       N       E                     dE             d eps       ncg     rms          rms(c)
DAV:   1     0.446635197248E+03    0.44664E+03   -0.17264E+04  5776   0.151E+03
DAV:   2     0.349433650641E+01   -0.44314E+03   -0.43119E+03  5784   0.523E+02
DAV:   3    -0.249885195685E+02   -0.28483E+02   -0.27630E+02  7960   0.122E+02
DAV:   4    -0.258406140094E+02   -0.85209E+00   -0.84650E+00  6208   0.267E+01
DAV:   5    -0.258643159052E+02   -0.23702E-01   -0.23690E-01  7104   0.302E+00    0.767E+00
DAV:   6    -0.244056890363E+02    0.14586E+01   -0.33301E+00  6968   0.206E+01    0.232E+00
DAV:   7    -0.242524432296E+02    0.15325E+00   -0.47392E-01  8624   0.700E+00    0.524E-01
DAV:   8    -0.242357403445E+02    0.16703E-01   -0.19565E-02  6064   0.177E+00    0.102E-01
DAV:   9    -0.242354215756E+02    0.31877E-03   -0.17703E-03  7592   0.462E-01    0.227E-02
DAV:  10    -0.242354419688E+02   -0.20393E-04   -0.45589E-05  6392   0.381E-02    0.358E-03
DAV:  11    -0.242354446900E+02   -0.27211E-05   -0.13482E-06  4528   0.115E-02    0.733E-04
DAV:  12    -0.242354445568E+02    0.13318E-06   -0.23405E-07  3160   0.400E-03
   1 F= -.24235445E+02 E0= -.24234143E+02  d E =-.242354E+02
 curvature:   0.00 expect dE= 0.000E+00 dE for cont linesearch  0.000E+00
 trial: gam= 0.00000 g(F)=  0.325E-63 g(S)=  0.000E+00 ort = 0.000E+00 (trialstep = 0.100E+01)
 search vector abs. value=  0.100E-09
 reached required accuracy - stopping structural energy minimisation
 writing wavefunctions
This job finished on
Tue Jan 22 12:57:32 CET 2019
