This job started on
Tue Jan 22 15:09:45 CET 2019
 running on   16 total cores
 distrk:  each k-point on   16 cores,    1 groups
 distr:  one band on    8 cores,    2 groups
 using from now: INCAR     
 vasp.5.4.4.18Apr17-6-g9f103f2a35 (build Apr 17 2018 18:25:23) complex          
  
 POSCAR found :  1 types and       4 ions

 ----------------------------------------------------------------------------- 
|                                                                             |
|  ADVICE TO THIS USER RUNNING 'VASP/VAMP'   (HEAR YOUR MASTER'S VOICE ...):  |
|                                                                             |
|      You enforced a specific xc-type in the INCAR file,                     |
|      a different type was found on the POTCAR file                          |
|          I HOPE YOU KNOW, WHAT YOU ARE  DOING                               |
|                                                                             |
 ----------------------------------------------------------------------------- 

 LDA part: xc-table for Ceperly-Alder, standard interpolation
 POSCAR found :  1 types and       4 ions
 POSCAR, INCAR and KPOINTS ok, starting setup
 FFT: planning ...
 WAVECAR not read
 entering main loop
       N       E                     dE             d eps       ncg     rms          rms(c)
DAV:   1     0.454845369579E+03    0.45485E+03   -0.17415E+04 10592   0.152E+03
DAV:   2     0.350160054654E+01   -0.45134E+03   -0.43867E+03 10592   0.528E+02
DAV:   3    -0.248260612641E+02   -0.28328E+02   -0.27500E+02 14440   0.124E+02
DAV:   4    -0.256334732932E+02   -0.80741E+00   -0.80017E+00 11320   0.262E+01
DAV:   5    -0.256550767407E+02   -0.21603E-01   -0.21594E-01 12808   0.293E+00    0.764E+00
DAV:   6    -0.242354558273E+02    0.14196E+01   -0.31144E+00 12640   0.200E+01    0.238E+00
DAV:   7    -0.240711631373E+02    0.16429E+00   -0.49068E-01 15520   0.719E+00    0.505E-01
DAV:   8    -0.240535028278E+02    0.17660E-01   -0.20737E-02 11024   0.182E+00    0.103E-01
DAV:   9    -0.240531839557E+02    0.31887E-03   -0.18506E-03 13880   0.472E-01    0.230E-02
DAV:  10    -0.240532054347E+02   -0.21479E-04   -0.48819E-05 11824   0.396E-02    0.351E-03
DAV:  11    -0.240532082387E+02   -0.28040E-05   -0.14451E-06  8464   0.120E-02    0.709E-04
DAV:  12    -0.240532081180E+02    0.12066E-06   -0.23462E-07  5784   0.411E-03
   1 F= -.24053208E+02 E0= -.24052021E+02  d E =-.240532E+02
 curvature:   0.00 expect dE= 0.000E+00 dE for cont linesearch  0.000E+00
 trial: gam= 0.00000 g(F)=  0.410E-62 g(S)=  0.000E+00 ort = 0.000E+00 (trialstep = 0.100E+01)
 search vector abs. value=  0.100E-09
 reached required accuracy - stopping structural energy minimisation
 writing wavefunctions
This job finished on
Tue Jan 22 15:10:18 CET 2019
