<?xml version="1.0" encoding="ISO-8859-1"?>
<modeling>
 <generator>
  <i name="program" type="string">vasp </i>
  <i name="version" type="string">5.4.4.18Apr17-6-g9f103f2a35  </i>
  <i name="subversion" type="string">(build Apr 17 2018 18:25:23) complex            parallel </i>
  <i name="platform" type="string">LinuxIFC </i>
  <i name="date" type="string">2019 01 22 </i>
  <i name="time" type="string">15:09:47 </i>
 </generator>
 <incar>
  <i type="string" name="SYSTEM"> Pt bulk calculation</i>
  <i type="int" name="ISTART">     0</i>
  <i type="string" name="PREC">normal</i>
  <i type="string" name="ALGO"> NORMAL</i>
  <i type="int" name="ICHARG">     2</i>
  <i type="int" name="INIWAV">     1</i>
  <i type="int" name="NELMIN">    10</i>
  <i type="int" name="IBRION">     2</i>
  <i name="EDIFF">      0.00000100</i>
  <i name="EDIFFG">     -0.02000000</i>
  <i type="int" name="NSW">    10</i>
  <i name="ENCUT">    450.00000000</i>
  <i name="POTIM">      0.20000000</i>
  <i type="int" name="ISMEAR">     2</i>
  <i name="SIGMA">      0.20000000</i>
  <v type="int" name="KPOINT_BSE">    -1     0     0     0</v>
  <i type="string" name="GGA"> 91</i>
 </incar>
 <structure name="primitive_cell" >
  <crystal>
   <varray name="basis" >
    <v>       1.94000000       1.94000000      -0.00000000 </v>
    <v>       1.94000000       0.00000000      -1.94000000 </v>
    <v>       0.00000000       1.94000000      -1.94000000 </v>
   </varray>
   <i name="volume">     14.60276800 </i>
   <varray name="rec_basis" >
    <v>       0.25773196       0.25773196       0.25773196 </v>
    <v>       0.25773196      -0.25773196      -0.25773196 </v>
    <v>      -0.25773196       0.25773196      -0.25773196 </v>
   </varray>
  </crystal>
  <varray name="positions" >
   <v>       0.00000000       0.00000000       0.00000000 </v>
  </varray>
 </structure>
 <varray name="primitive_index" >
  <v type="int" >        1 </v>
 </varray>
 <kpoints>
  <generation param="Monkhorst-Pack">
   <v type="int" name="divisions">      20       20       20 </v>
   <v name="usershift">      0.00000000       0.00000000       0.00000000 </v>
   <v name="genvec1">      0.05000000       0.00000000       0.00000000 </v>
   <v name="genvec2">      0.00000000       0.05000000       0.00000000 </v>
   <v name="genvec3">      0.00000000       0.00000000       0.05000000 </v>
   <v name="shift">      0.50000000       0.50000000       0.50000000 </v>
  </generation>
  <varray name="kpointlist" >
   <v>       0.02500000       0.02500000       0.02500000 </v>
   <v>       0.07500000       0.02500000       0.02500000 </v>
   <v>       0.12500000       0.02500000       0.02500000 </v>
   <v>       0.17500000       0.02500000       0.02500000 </v>
   <v>       0.22500000       0.02500000       0.02500000 </v>
   <v>       0.27500000       0.02500000       0.02500000 </v>
   <v>       0.32500000       0.02500000       0.02500000 </v>
   <v>       0.37500000       0.02500000       0.02500000 </v>
   <v>       0.42500000       0.02500000       0.02500000 </v>
   <v>       0.47500000       0.02500000       0.02500000 </v>
   <v>       0.07500000       0.07500000       0.02500000 </v>
   <v>       0.12500000       0.07500000       0.02500000 </v>
   <v>       0.17500000       0.07500000       0.02500000 </v>
   <v>       0.22500000       0.07500000       0.02500000 </v>
   <v>       0.27500000       0.07500000       0.02500000 </v>
   <v>       0.32500000       0.07500000       0.02500000 </v>
   <v>       0.37500000       0.07500000       0.02500000 </v>
   <v>       0.42500000       0.07500000       0.02500000 </v>
   <v>       0.47500000       0.07500000       0.02500000 </v>
   <v>       0.12500000       0.12500000       0.02500000 </v>
   <v>       0.17500000       0.12500000       0.02500000 </v>
   <v>       0.22500000       0.12500000       0.02500000 </v>
   <v>       0.27500000       0.12500000       0.02500000 </v>
   <v>       0.32500000       0.12500000       0.02500000 </v>
   <v>       0.37500000       0.12500000       0.02500000 </v>
   <v>       0.42500000       0.12500000       0.02500000 </v>
   <v>       0.47500000       0.12500000       0.02500000 </v>
   <v>       0.17500000       0.17500000       0.02500000 </v>
   <v>       0.22500000       0.17500000       0.02500000 </v>
   <v>       0.27500000       0.17500000       0.02500000 </v>
   <v>       0.32500000       0.17500000       0.02500000 </v>
   <v>       0.37500000       0.17500000       0.02500000 </v>
   <v>       0.42500000       0.17500000       0.02500000 </v>
   <v>       0.47500000       0.17500000       0.02500000 </v>
   <v>       0.22500000       0.22500000       0.02500000 </v>
   <v>       0.27500000       0.22500000       0.02500000 </v>
   <v>       0.32500000       0.22500000       0.02500000 </v>
   <v>       0.37500000       0.22500000       0.02500000 </v>
   <v>       0.42500000       0.22500000       0.02500000 </v>
   <v>       0.47500000       0.22500000       0.02500000 </v>
   <v>       0.27500000       0.27500000       0.02500000 </v>
   <v>       0.32500000       0.27500000       0.02500000 </v>
   <v>       0.37500000       0.27500000       0.02500000 </v>
   <v>       0.42500000       0.27500000       0.02500000 </v>
   <v>       0.47500000       0.27500000       0.02500000 </v>
   <v>       0.32500000       0.32500000       0.02500000 </v>
   <v>       0.37500000       0.32500000       0.02500000 </v>
   <v>       0.42500000       0.32500000       0.02500000 </v>
   <v>       0.47500000       0.32500000       0.02500000 </v>
   <v>       0.37500000       0.37500000       0.02500000 </v>
   <v>       0.42500000       0.37500000       0.02500000 </v>
   <v>       0.47500000       0.37500000       0.02500000 </v>
   <v>       0.42500000       0.42500000       0.02500000 </v>
   <v>       0.47500000       0.42500000       0.02500000 </v>
   <v>       0.47500000       0.47500000       0.02500000 </v>
   <v>       0.07500000       0.07500000       0.07500000 </v>
   <v>       0.12500000       0.07500000       0.07500000 </v>
   <v>       0.17500000       0.07500000       0.07500000 </v>
   <v>       0.22500000       0.07500000       0.07500000 </v>
   <v>       0.27500000       0.07500000       0.07500000 </v>
   <v>       0.32500000       0.07500000       0.07500000 </v>
   <v>       0.37500000       0.07500000       0.07500000 </v>
   <v>       0.42500000       0.07500000       0.07500000 </v>
   <v>       0.47500000       0.07500000       0.07500000 </v>
   <v>       0.12500000       0.12500000       0.07500000 </v>
   <v>       0.17500000       0.12500000       0.07500000 </v>
   <v>       0.22500000       0.12500000       0.07500000 </v>
   <v>       0.27500000       0.12500000       0.07500000 </v>
   <v>       0.32500000       0.12500000       0.07500000 </v>
   <v>       0.37500000       0.12500000       0.07500000 </v>
   <v>       0.42500000       0.12500000       0.07500000 </v>
   <v>       0.47500000       0.12500000       0.07500000 </v>
   <v>       0.17500000       0.17500000       0.07500000 </v>
   <v>       0.22500000       0.17500000       0.07500000 </v>
   <v>       0.27500000       0.17500000       0.07500000 </v>
   <v>       0.32500000       0.17500000       0.07500000 </v>
   <v>       0.37500000       0.17500000       0.07500000 </v>
   <v>       0.42500000       0.17500000       0.07500000 </v>
   <v>       0.47500000       0.17500000       0.07500000 </v>
   <v>       0.22500000       0.22500000       0.07500000 </v>
   <v>       0.27500000       0.22500000       0.07500000 </v>
   <v>       0.32500000       0.22500000       0.07500000 </v>
   <v>       0.37500000       0.22500000       0.07500000 </v>
   <v>       0.42500000       0.22500000       0.07500000 </v>
   <v>       0.47500000       0.22500000       0.07500000 </v>
   <v>       0.27500000       0.27500000       0.07500000 </v>
   <v>       0.32500000       0.27500000       0.07500000 </v>
   <v>       0.37500000       0.27500000       0.07500000 </v>
   <v>       0.42500000       0.27500000       0.07500000 </v>
   <v>       0.47500000       0.27500000       0.07500000 </v>
   <v>       0.32500000       0.32500000       0.07500000 </v>
   <v>       0.37500000       0.32500000       0.07500000 </v>
   <v>       0.42500000       0.32500000       0.07500000 </v>
   <v>       0.47500000       0.32500000       0.07500000 </v>
   <v>       0.37500000       0.37500000       0.07500000 </v>
   <v>       0.42500000       0.37500000       0.07500000 </v>
   <v>       0.47500000       0.37500000       0.07500000 </v>
   <v>       0.42500000       0.42500000       0.07500000 </v>
   <v>       0.47500000       0.42500000       0.07500000 </v>
   <v>       0.47500000       0.47500000       0.07500000 </v>
   <v>       0.12500000       0.12500000       0.12500000 </v>
   <v>       0.17500000       0.12500000       0.12500000 </v>
   <v>       0.22500000       0.12500000       0.12500000 </v>
   <v>       0.27500000       0.12500000       0.12500000 </v>
   <v>       0.32500000       0.12500000       0.12500000 </v>
   <v>       0.37500000       0.12500000       0.12500000 </v>
   <v>       0.42500000       0.12500000       0.12500000 </v>
   <v>       0.47500000       0.12500000       0.12500000 </v>
   <v>       0.17500000       0.17500000       0.12500000 </v>
   <v>       0.22500000       0.17500000       0.12500000 </v>
   <v>       0.27500000       0.17500000       0.12500000 </v>
   <v>       0.32500000       0.17500000       0.12500000 </v>
   <v>       0.37500000       0.17500000       0.12500000 </v>
   <v>       0.42500000       0.17500000       0.12500000 </v>
   <v>       0.47500000       0.17500000       0.12500000 </v>
   <v>       0.22500000       0.22500000       0.12500000 </v>
   <v>       0.27500000       0.22500000       0.12500000 </v>
   <v>       0.32500000       0.22500000       0.12500000 </v>
   <v>       0.37500000       0.22500000       0.12500000 </v>
   <v>       0.42500000       0.22500000       0.12500000 </v>
   <v>       0.47500000       0.22500000       0.12500000 </v>
   <v>       0.27500000       0.27500000       0.12500000 </v>
   <v>       0.32500000       0.27500000       0.12500000 </v>
   <v>       0.37500000       0.27500000       0.12500000 </v>
   <v>       0.42500000       0.27500000       0.12500000 </v>
   <v>       0.47500000       0.27500000       0.12500000 </v>
   <v>       0.32500000       0.32500000       0.12500000 </v>
   <v>       0.37500000       0.32500000       0.12500000 </v>
   <v>       0.42500000       0.32500000       0.12500000 </v>
   <v>       0.47500000       0.32500000       0.12500000 </v>
   <v>       0.37500000       0.37500000       0.12500000 </v>
   <v>       0.42500000       0.37500000       0.12500000 </v>
   <v>       0.47500000       0.37500000       0.12500000 </v>
   <v>       0.42500000       0.42500000       0.12500000 </v>
   <v>       0.47500000       0.42500000       0.12500000 </v>
   <v>       0.47500000       0.47500000       0.12500000 </v>
   <v>       0.17500000       0.17500000       0.17500000 </v>
   <v>       0.22500000       0.17500000       0.17500000 </v>
   <v>       0.27500000       0.17500000       0.17500000 </v>
   <v>       0.32500000       0.17500000       0.17500000 </v>
   <v>       0.37500000       0.17500000       0.17500000 </v>
   <v>       0.42500000       0.17500000       0.17500000 </v>
   <v>       0.47500000       0.17500000       0.17500000 </v>
   <v>       0.22500000       0.22500000       0.17500000 </v>
   <v>       0.27500000       0.22500000       0.17500000 </v>
   <v>       0.32500000       0.22500000       0.17500000 </v>
   <v>       0.37500000       0.22500000       0.17500000 </v>
   <v>       0.42500000       0.22500000       0.17500000 </v>
   <v>       0.47500000       0.22500000       0.17500000 </v>
   <v>       0.27500000       0.27500000       0.17500000 </v>
   <v>       0.32500000       0.27500000       0.17500000 </v>
   <v>       0.37500000       0.27500000       0.17500000 </v>
   <v>       0.42500000       0.27500000       0.17500000 </v>
   <v>       0.47500000       0.27500000       0.17500000 </v>
   <v>       0.32500000       0.32500000       0.17500000 </v>
   <v>       0.37500000       0.32500000       0.17500000 </v>
   <v>       0.42500000       0.32500000       0.17500000 </v>
   <v>       0.47500000       0.32500000       0.17500000 </v>
   <v>       0.37500000       0.37500000       0.17500000 </v>
   <v>       0.42500000       0.37500000       0.17500000 </v>
   <v>       0.47500000       0.37500000       0.17500000 </v>
   <v>       0.42500000       0.42500000       0.17500000 </v>
   <v>       0.47500000       0.42500000       0.17500000 </v>
   <v>       0.47500000       0.47500000       0.17500000 </v>
   <v>       0.22500000       0.22500000       0.22500000 </v>
   <v>       0.27500000       0.22500000       0.22500000 </v>
   <v>       0.32500000       0.22500000       0.22500000 </v>
   <v>       0.37500000       0.22500000       0.22500000 </v>
   <v>       0.42500000       0.22500000       0.22500000 </v>
   <v>       0.47500000       0.22500000       0.22500000 </v>
   <v>       0.27500000       0.27500000       0.22500000 </v>
   <v>       0.32500000       0.27500000       0.22500000 </v>
   <v>       0.37500000       0.27500000       0.22500000 </v>
   <v>       0.42500000       0.27500000       0.22500000 </v>
   <v>       0.47500000       0.27500000       0.22500000 </v>
   <v>       0.32500000       0.32500000       0.22500000 </v>
   <v>       0.37500000       0.32500000       0.22500000 </v>
   <v>       0.42500000       0.32500000       0.22500000 </v>
   <v>       0.47500000       0.32500000       0.22500000 </v>
   <v>       0.37500000       0.37500000       0.22500000 </v>
   <v>       0.42500000       0.37500000       0.22500000 </v>
   <v>       0.47500000       0.37500000       0.22500000 </v>
   <v>       0.42500000       0.42500000       0.22500000 </v>
   <v>       0.47500000       0.42500000       0.22500000 </v>
   <v>       0.47500000       0.47500000       0.22500000 </v>
   <v>       0.27500000       0.27500000       0.27500000 </v>
   <v>       0.32500000       0.27500000       0.27500000 </v>
   <v>       0.37500000       0.27500000       0.27500000 </v>
   <v>       0.42500000       0.27500000       0.27500000 </v>
   <v>       0.47500000       0.27500000       0.27500000 </v>
   <v>       0.32500000       0.32500000       0.27500000 </v>
   <v>       0.37500000       0.32500000       0.27500000 </v>
   <v>       0.42500000       0.32500000       0.27500000 </v>
   <v>       0.47500000       0.32500000       0.27500000 </v>
   <v>       0.37500000       0.37500000       0.27500000 </v>
   <v>       0.42500000       0.37500000       0.27500000 </v>
   <v>       0.47500000       0.37500000       0.27500000 </v>
   <v>       0.42500000       0.42500000       0.27500000 </v>
   <v>       0.47500000       0.42500000       0.27500000 </v>
   <v>       0.47500000       0.47500000       0.27500000 </v>
   <v>       0.32500000       0.32500000       0.32500000 </v>
   <v>       0.37500000       0.32500000       0.32500000 </v>
   <v>       0.42500000       0.32500000       0.32500000 </v>
   <v>       0.47500000       0.32500000       0.32500000 </v>
   <v>       0.37500000       0.37500000       0.32500000 </v>
   <v>       0.42500000       0.37500000       0.32500000 </v>
   <v>       0.47500000       0.37500000       0.32500000 </v>
   <v>       0.42500000       0.42500000       0.32500000 </v>
   <v>       0.47500000       0.42500000       0.32500000 </v>
   <v>       0.47500000       0.47500000       0.32500000 </v>
   <v>       0.37500000       0.37500000       0.37500000 </v>
   <v>       0.42500000       0.37500000       0.37500000 </v>
   <v>       0.47500000       0.37500000       0.37500000 </v>
   <v>       0.42500000       0.42500000       0.37500000 </v>
   <v>       0.47500000       0.42500000       0.37500000 </v>
   <v>       0.47500000       0.47500000       0.37500000 </v>
   <v>       0.42500000       0.42500000       0.42500000 </v>
   <v>       0.47500000       0.42500000       0.42500000 </v>
   <v>       0.47500000       0.47500000       0.42500000 </v>
   <v>       0.47500000       0.47500000       0.47500000 </v>
  </varray>
  <varray name="weights" >
   <v>       0.00100000 </v>
   <v>       0.00300000 </v>
   <v>       0.00300000 </v>
   <v>       0.00300000 </v>
   <v>       0.00300000 </v>
   <v>       0.00300000 </v>
   <v>       0.00300000 </v>
   <v>       0.00300000 </v>
   <v>       0.00300000 </v>
   <v>       0.00300000 </v>
   <v>       0.00300000 </v>
   <v>       0.00600000 </v>
   <v>       0.00600000 </v>
   <v>       0.00600000 </v>
   <v>       0.00600000 </v>
   <v>       0.00600000 </v>
   <v>       0.00600000 </v>
   <v>       0.00600000 </v>
   <v>       0.00600000 </v>
   <v>       0.00300000 </v>
   <v>       0.00600000 </v>
   <v>       0.00600000 </v>
   <v>       0.00600000 </v>
   <v>       0.00600000 </v>
   <v>       0.00600000 </v>
   <v>       0.00600000 </v>
   <v>       0.00600000 </v>
   <v>       0.00300000 </v>
   <v>       0.00600000 </v>
   <v>       0.00600000 </v>
   <v>       0.00600000 </v>
   <v>       0.00600000 </v>
   <v>       0.00600000 </v>
   <v>       0.00600000 </v>
   <v>       0.00300000 </v>
   <v>       0.00600000 </v>
   <v>       0.00600000 </v>
   <v>       0.00600000 </v>
   <v>       0.00600000 </v>
   <v>       0.00600000 </v>
   <v>       0.00300000 </v>
   <v>       0.00600000 </v>
   <v>       0.00600000 </v>
   <v>       0.00600000 </v>
   <v>       0.00600000 </v>
   <v>       0.00300000 </v>
   <v>       0.00600000 </v>
   <v>       0.00600000 </v>
   <v>       0.00600000 </v>
   <v>       0.00300000 </v>
   <v>       0.00600000 </v>
   <v>       0.00600000 </v>
   <v>       0.00300000 </v>
   <v>       0.00600000 </v>
   <v>       0.00300000 </v>
   <v>       0.00100000 </v>
   <v>       0.00300000 </v>
   <v>       0.00300000 </v>
   <v>       0.00300000 </v>
   <v>       0.00300000 </v>
   <v>       0.00300000 </v>
   <v>       0.00300000 </v>
   <v>       0.00300000 </v>
   <v>       0.00300000 </v>
   <v>       0.00300000 </v>
   <v>       0.00600000 </v>
   <v>       0.00600000 </v>
   <v>       0.00600000 </v>
   <v>       0.00600000 </v>
   <v>       0.00600000 </v>
   <v>       0.00600000 </v>
   <v>       0.00600000 </v>
   <v>       0.00300000 </v>
   <v>       0.00600000 </v>
   <v>       0.00600000 </v>
   <v>       0.00600000 </v>
   <v>       0.00600000 </v>
   <v>       0.00600000 </v>
   <v>       0.00600000 </v>
   <v>       0.00300000 </v>
   <v>       0.00600000 </v>
   <v>       0.00600000 </v>
   <v>       0.00600000 </v>
   <v>       0.00600000 </v>
   <v>       0.00600000 </v>
   <v>       0.00300000 </v>
   <v>       0.00600000 </v>
   <v>       0.00600000 </v>
   <v>       0.00600000 </v>
   <v>       0.00600000 </v>
   <v>       0.00300000 </v>
   <v>       0.00600000 </v>
   <v>       0.00600000 </v>
   <v>       0.00600000 </v>
   <v>       0.00300000 </v>
   <v>       0.00600000 </v>
   <v>       0.00600000 </v>
   <v>       0.00300000 </v>
   <v>       0.00600000 </v>
   <v>       0.00300000 </v>
   <v>       0.00100000 </v>
   <v>       0.00300000 </v>
   <v>       0.00300000 </v>
   <v>       0.00300000 </v>
   <v>       0.00300000 </v>
   <v>       0.00300000 </v>
   <v>       0.00300000 </v>
   <v>       0.00300000 </v>
   <v>       0.00300000 </v>
   <v>       0.00600000 </v>
   <v>       0.00600000 </v>
   <v>       0.00600000 </v>
   <v>       0.00600000 </v>
   <v>       0.00600000 </v>
   <v>       0.00600000 </v>
   <v>       0.00300000 </v>
   <v>       0.00600000 </v>
   <v>       0.00600000 </v>
   <v>       0.00600000 </v>
   <v>       0.00600000 </v>
   <v>       0.00600000 </v>
   <v>       0.00300000 </v>
   <v>       0.00600000 </v>
   <v>       0.00600000 </v>
   <v>       0.00600000 </v>
   <v>       0.00600000 </v>
   <v>       0.00300000 </v>
   <v>       0.00600000 </v>
   <v>       0.00600000 </v>
   <v>       0.00600000 </v>
   <v>       0.00300000 </v>
   <v>       0.00600000 </v>
   <v>       0.00600000 </v>
   <v>       0.00300000 </v>
   <v>       0.00600000 </v>
   <v>       0.00300000 </v>
   <v>       0.00100000 </v>
   <v>       0.00300000 </v>
   <v>       0.00300000 </v>
   <v>       0.00300000 </v>
   <v>       0.00300000 </v>
   <v>       0.00300000 </v>
   <v>       0.00300000 </v>
   <v>       0.00300000 </v>
   <v>       0.00600000 </v>
   <v>       0.00600000 </v>
   <v>       0.00600000 </v>
   <v>       0.00600000 </v>
   <v>       0.00600000 </v>
   <v>       0.00300000 </v>
   <v>       0.00600000 </v>
   <v>       0.00600000 </v>
   <v>       0.00600000 </v>
   <v>       0.00600000 </v>
   <v>       0.00300000 </v>
   <v>       0.00600000 </v>
   <v>       0.00600000 </v>
   <v>       0.00600000 </v>
   <v>       0.00300000 </v>
   <v>       0.00600000 </v>
   <v>       0.00600000 </v>
   <v>       0.00300000 </v>
   <v>       0.00600000 </v>
   <v>       0.00300000 </v>
   <v>       0.00100000 </v>
   <v>       0.00300000 </v>
   <v>       0.00300000 </v>
   <v>       0.00300000 </v>
   <v>       0.00300000 </v>
   <v>       0.00300000 </v>
   <v>       0.00300000 </v>
   <v>       0.00600000 </v>
   <v>       0.00600000 </v>
   <v>       0.00600000 </v>
   <v>       0.00600000 </v>
   <v>       0.00300000 </v>
   <v>       0.00600000 </v>
   <v>       0.00600000 </v>
   <v>       0.00600000 </v>
   <v>       0.00300000 </v>
   <v>       0.00600000 </v>
   <v>       0.00600000 </v>
   <v>       0.00300000 </v>
   <v>       0.00600000 </v>
   <v>       0.00300000 </v>
   <v>       0.00100000 </v>
   <v>       0.00300000 </v>
   <v>       0.00300000 </v>
   <v>       0.00300000 </v>
   <v>       0.00300000 </v>
   <v>       0.00300000 </v>
   <v>       0.00600000 </v>
   <v>       0.00600000 </v>
   <v>       0.00600000 </v>
   <v>       0.00300000 </v>
   <v>       0.00600000 </v>
   <v>       0.00600000 </v>
   <v>       0.00300000 </v>
   <v>       0.00600000 </v>
   <v>       0.00300000 </v>
   <v>       0.00100000 </v>
   <v>       0.00300000 </v>
   <v>       0.00300000 </v>
   <v>       0.00300000 </v>
   <v>       0.00300000 </v>
   <v>       0.00600000 </v>
   <v>       0.00600000 </v>
   <v>       0.00300000 </v>
   <v>       0.00600000 </v>
   <v>       0.00300000 </v>
   <v>       0.00100000 </v>
   <v>       0.00300000 </v>
   <v>       0.00300000 </v>
   <v>       0.00300000 </v>
   <v>       0.00600000 </v>
   <v>       0.00300000 </v>
   <v>       0.00100000 </v>
   <v>       0.00300000 </v>
   <v>       0.00300000 </v>
   <v>       0.00100000 </v>
  </varray>
 </kpoints>
 <parameters>
  <separator name="general" >
   <i type="string" name="SYSTEM">Pt bulk calculation</i>
   <i type="logical" name="LCOMPAT"> F  </i>
  </separator>
  <separator name="electronic" >
   <i type="string" name="PREC">normal</i>
   <i name="ENMAX">    450.00000000</i>
   <i name="ENAUG">    358.96600000</i>
   <i name="EDIFF">      0.00000100</i>
   <i type="int" name="IALGO">    38</i>
   <i type="int" name="IWAVPR">    11</i>
   <i type="int" name="NBANDS">    24</i>
   <i name="NELECT">     40.00000000</i>
   <i type="int" name="TURBO">     0</i>
   <i type="int" name="IRESTART">     0</i>
   <i type="int" name="NREBOOT">     0</i>
   <i type="int" name="NMIN">     0</i>
   <i name="EREF">      0.00000000</i>
   <separator name="electronic smearing" >
    <i type="int" name="ISMEAR">     2</i>
    <i name="SIGMA">      0.20000000</i>
    <i name="KSPACING">      0.50000000</i>
    <i type="logical" name="KGAMMA"> T  </i>
   </separator>
   <separator name="electronic projectors" >
    <i type="logical" name="LREAL"> F  </i>
    <v name="ROPT">      0.00000000</v>
    <i type="int" name="LMAXPAW">  -100</i>
    <i type="int" name="LMAXMIX">     2</i>
    <i type="logical" name="NLSPLINE"> F  </i>
   </separator>
   <separator name="electronic startup" >
    <i type="int" name="ISTART">     0</i>
    <i type="int" name="ICHARG">     2</i>
    <i type="int" name="INIWAV">     1</i>
   </separator>
   <separator name="electronic spin" >
    <i type="int" name="ISPIN">     1</i>
    <i type="logical" name="LNONCOLLINEAR"> F  </i>
    <v name="MAGMOM">      1.00000000      1.00000000      1.00000000      1.00000000</v>
    <i name="NUPDOWN">     -1.00000000</i>
    <i type="logical" name="LSORBIT"> F  </i>
    <v name="SAXIS">      0.00000000      0.00000000      1.00000000</v>
    <i type="logical" name="LSPIRAL"> F  </i>
    <v name="QSPIRAL">      0.00000000      0.00000000      0.00000000</v>
    <i type="logical" name="LZEROZ"> F  </i>
   </separator>
   <separator name="electronic exchange-correlation" >
    <i type="logical" name="LASPH"> F  </i>
    <i type="logical" name="LMETAGGA"> F  </i>
   </separator>
   <separator name="electronic convergence" >
    <i type="int" name="NELM">    60</i>
    <i type="int" name="NELMDL">    -5</i>
    <i type="int" name="NELMIN">    10</i>
    <i name="ENINI">    450.00000000</i>
    <separator name="electronic convergence detail" >
     <i type="logical" name="LDIAG"> T  </i>
     <i type="logical" name="LSUBROT"> F  </i>
     <i name="WEIMIN">      0.00100000</i>
     <i name="EBREAK">      0.00000001</i>
     <i name="DEPER">      0.30000000</i>
     <i type="int" name="NRMM">     4</i>
     <i name="TIME">      0.40000000</i>
    </separator>
   </separator>
   <separator name="electronic mixer" >
    <i name="AMIX">      0.40000000</i>
    <i name="BMIX">      1.00000000</i>
    <i name="AMIN">      0.10000000</i>
    <i name="AMIX_MAG">      1.60000000</i>
    <i name="BMIX_MAG">      1.00000000</i>
    <separator name="electronic mixer details" >
     <i type="int" name="IMIX">     4</i>
     <i type="logical" name="MIXFIRST"> F  </i>
     <i type="int" name="MAXMIX">   -45</i>
     <i name="WC">    100.00000000</i>
     <i type="int" name="INIMIX">     1</i>
     <i type="int" name="MIXPRE">     1</i>
     <i type="int" name="MREMOVE">     5</i>
    </separator>
   </separator>
   <separator name="electronic dipolcorrection" >
    <i type="logical" name="LDIPOL"> F  </i>
    <i type="logical" name="LMONO"> F  </i>
    <i type="int" name="IDIPOL">     0</i>
    <i name="EPSILON">      1.00000000</i>
    <v name="DIPOL">   -100.00000000   -100.00000000   -100.00000000</v>
    <i name="EFIELD">      0.00000000</i>
   </separator>
  </separator>
  <separator name="grids" >
   <i type="int" name="NGX">    20</i>
   <i type="int" name="NGY">    20</i>
   <i type="int" name="NGZ">    20</i>
   <i type="int" name="NGXF">    40</i>
   <i type="int" name="NGYF">    40</i>
   <i type="int" name="NGZF">    40</i>
   <i type="logical" name="ADDGRID"> F  </i>
  </separator>
  <separator name="ionic" >
   <i type="int" name="NSW">    10</i>
   <i type="int" name="IBRION">     2</i>
   <i type="int" name="MDALGO">     0</i>
   <i type="int" name="ISIF">     2</i>
   <i name="PSTRESS">      0.00000000</i>
   <i name="EDIFFG">     -0.02000000</i>
   <i type="int" name="NFREE">     1</i>
   <i name="POTIM">      0.20000000</i>
   <i name="SMASS">     -3.00000000</i>
   <i name="SCALEE">      1.00000000</i>
  </separator>
  <separator name="ionic md" >
   <i name="TEBEG">      0.00010000</i>
   <i name="TEEND">      0.00010000</i>
   <i type="int" name="NBLOCK">     1</i>
   <i type="int" name="KBLOCK">    10</i>
   <i type="int" name="NPACO">   256</i>
   <i name="APACO">     16.00000000</i>
  </separator>
  <separator name="symmetry" >
   <i type="int" name="ISYM">     2</i>
   <i name="SYMPREC">      0.00001000</i>
  </separator>
  <separator name="dos" >
   <i type="int" name="LORBIT">     0</i>
   <v name="RWIGS">     -1.00000000</v>
   <i type="int" name="NEDOS">   301</i>
   <i name="EMIN">     10.00000000</i>
   <i name="EMAX">    -10.00000000</i>
   <i name="EFERMI">      0.00000000</i>
  </separator>
  <separator name="writing" >
   <i type="int" name="NWRITE">     2</i>
   <i type="logical" name="LWAVE"> T  </i>
   <i type="logical" name="LDOWNSAMPLE"> F  </i>
   <i type="logical" name="LCHARG"> T  </i>
   <i type="logical" name="LPARD"> F  </i>
   <i type="logical" name="LVTOT"> F  </i>
   <i type="logical" name="LVHAR"> F  </i>
   <i type="logical" name="LELF"> F  </i>
   <i type="logical" name="LOPTICS"> F  </i>
   <v name="STM">      0.00000000      0.00000000      0.00000000      0.00000000      0.00000000      0.00000000      0.00000000</v>
  </separator>
  <separator name="performance" >
   <i type="int" name="NPAR">     2</i>
   <i type="int" name="NSIM">     4</i>
   <i type="int" name="NBLK">    -1</i>
   <i type="logical" name="LPLANE"> T  </i>
   <i type="logical" name="LSCALAPACK"> F  </i>
   <i type="logical" name="LSCAAWARE"> F  </i>
   <i type="logical" name="LSCALU"> F  </i>
   <i type="logical" name="LASYNC"> F  </i>
   <i type="logical" name="LORBITALREAL"> F  </i>
  </separator>
  <separator name="miscellaneous" >
   <i type="int" name="IDIOT">     3</i>
   <i type="int" name="ISPECIAL">     0</i>
   <i type="logical" name="LMUSIC"> F  </i>
   <v name="POMASS">    195.08000000</v>
   <v name="DARWINR">      0.00000000</v>
   <v name="DARWINV">      1.00000000</v>
   <i type="logical" name="LCORR"> T  </i>
  </separator>
  <i type="logical" name="GGA_COMPAT"> T  </i>
  <i type="logical" name="LBERRY"> F  </i>
  <i type="int" name="ICORELEVEL">     0</i>
  <i type="logical" name="LDAU"> F  </i>
  <i type="int" name="I_CONSTRAINED_M">     0</i>
  <separator name="electronic exchange-correlation" >
   <i type="string" name="GGA">91</i>
   <i type="int" name="VOSKOWN">     0</i>
   <i type="logical" name="LHFCALC"> F  </i>
   <i type="string" name="PRECFOCK"></i>
   <i type="logical" name="LSYMGRAD"> F  </i>
   <i type="logical" name="LHFONE"> F  </i>
   <i type="logical" name="LRHFCALC"> F  </i>
   <i type="logical" name="LTHOMAS"> F  </i>
   <i type="logical" name="LMODELHF"> F  </i>
   <i name="ENCUT4O">     -1.00000000</i>
   <i type="int" name="EXXOEP">     0</i>
   <i type="int" name="FOURORBIT">     0</i>
   <i name="AEXX">      0.00000000</i>
   <i name="HFALPHA">      0.00000000</i>
   <i name="MCALPHA">      0.00000000</i>
   <i name="ALDAX">      1.00000000</i>
   <i name="AGGAX">      1.00000000</i>
   <i name="ALDAC">      1.00000000</i>
   <i name="AGGAC">      1.00000000</i>
   <i type="int" name="NKREDX">     1</i>
   <i type="int" name="NKREDY">     1</i>
   <i type="int" name="NKREDZ">     1</i>
   <i type="logical" name="SHIFTRED"> F  </i>
   <i type="logical" name="ODDONLY"> F  </i>
   <i type="logical" name="EVENONLY"> F  </i>
   <i type="int" name="LMAXFOCK">     0</i>
   <i type="int" name="NMAXFOCKAE">     0</i>
   <i type="logical" name="LFOCKAEDFT"> F  </i>
   <i name="HFSCREEN">      0.00000000</i>
   <i name="HFSCREENC">      0.00000000</i>
   <i type="int" name="NBANDSGWLOW">     0</i>
  </separator>
  <separator name="vdW DFT" >
   <i type="logical" name="LUSE_VDW"> F  </i>
   <i name="Zab_VDW">     -0.84910000</i>
   <i name="PARAM1">      0.12340000</i>
   <i name="PARAM2">      1.00000000</i>
   <i name="PARAM3">      0.00000000</i>
  </separator>
  <separator name="model GW" >
   <i type="int" name="MODEL_GW">     0</i>
   <i name="MODEL_EPS0">      8.76166080</i>
   <i name="MODEL_ALPHA">      1.00000000</i>
  </separator>
  <separator name="linear response parameters" >
   <i type="logical" name="LEPSILON"> F  </i>
   <i type="logical" name="LRPA"> F  </i>
   <i type="logical" name="LNABLA"> F  </i>
   <i type="logical" name="LVEL"> F  </i>
   <i type="int" name="KINTER">     0</i>
   <i name="CSHIFT">      0.10000000</i>
   <i name="OMEGAMAX">     -1.00000000</i>
   <i name="DEG_THRESHOLD">      0.00200000</i>
   <i name="RTIME">     -0.10000000</i>
   <i name="WPLASMAI">      0.00000000</i>
   <v name="DFIELD">      0.00000000      0.00000000      0.00000000</v>
   <v name="WPLASMA">      0.00000000      0.00000000      0.00000000      0.00000000      0.00000000      0.00000000      0.00000000      0.00000000      0.00000000</v>
  </separator>
  <separator name="orbital magnetization" >
   <i type="logical" name="NUCIND"> F  </i>
   <v name="MAGPOS">      0.00000000      0.00000000      0.00000000</v>
   <i type="logical" name="LNICSALL"> T  </i>
   <i type="logical" name="ORBITALMAG"> F  </i>
   <i type="logical" name="LMAGBLOCH"> F  </i>
   <i type="logical" name="LCHIMAG"> F  </i>
   <i type="logical" name="LGAUGE"> T  </i>
   <i type="int" name="MAGATOM">     0</i>
   <v name="MAGDIPOL">      0.00000000      0.00000000      0.00000000</v>
   <v name="AVECCONST">      0.00000000      0.00000000      0.00000000</v>
  </separator>
  <separator name="response functions" >
   <i type="logical" name="LADDER"> F  </i>
   <i type="logical" name="LRPAFORCE"> F  </i>
   <i type="logical" name="LFXC"> F  </i>
   <i type="logical" name="LHARTREE"> T  </i>
   <i type="int" name="IBSE">     0</i>
   <v type="int" name="KPOINT">    -1     0     0     0</v>
   <i type="logical" name="LTCTE"> F  </i>
   <i type="logical" name="LTETE"> F  </i>
   <i type="logical" name="LTRIPLET"> F  </i>
   <i type="logical" name="LFXCEPS"> F  </i>
   <i type="logical" name="LFXHEG"> F  </i>
   <i type="int" name="NATURALO">     2</i>
   <i type="logical" name="L2ORDER"> F  </i>
   <i type="logical" name="LMP2LT"> F  </i>
   <i type="logical" name="LUSEW"> F  </i>
   <i name="ENCUTGW">     -2.00000000</i>
   <i name="ENCUTGWSOFT">     -2.00000000</i>
   <i name="ENCUTLF">     -1.00000000</i>
   <i type="int" name="LMAXMP2">    -1</i>
   <i name="SCISSOR">      0.00000000</i>
   <i type="int" name="NOMEGA">     0</i>
   <i type="int" name="NOMEGAR">     0</i>
   <i type="int" name="NBANDSGW">    -1</i>
   <i type="int" name="NBANDSO">    -1</i>
   <i type="int" name="NBANDSV">    -1</i>
   <i type="int" name="NELM">     1</i>
   <i type="int" name="NELMHF">     1</i>
   <i type="int" name="DIM">     3</i>
   <i type="int" name="ANTIRES">     0</i>
   <i name="OMEGAMAX">    -30.00000000</i>
   <i name="OMEGAMIN">    -30.00000000</i>
   <i name="OMEGATL">   -200.00000000</i>
   <i type="int" name="OMEGAGRID">   140</i>
   <i name="CSHIFT">     -0.10000000</i>
   <i type="logical" name="SELFENERGY"> F  </i>
   <i type="logical" name="LSPECTRAL"> F  </i>
   <i type="logical" name="LSPECTRALGW"> F  </i>
   <i type="logical" name="LSINGLES"> F  </i>
   <i type="logical" name="LFERMIGW"> F  </i>
   <i type="logical" name="ODDONLYGW"> F  </i>
   <i type="logical" name="EVENONLYGW"> F  </i>
   <i type="int" name="NKREDLFX">     1</i>
   <i type="int" name="NKREDLFY">     1</i>
   <i type="int" name="NKREDLFZ">     1</i>
   <i type="int" name="MAXMEM">  2800</i>
   <i type="int" name="TELESCOPE">     0</i>
   <i type="int" name="TAUPAR">     1</i>
   <i type="int" name="OMEGAPAR">    -1</i>
   <i name="LAMBDA">      1.00000000</i>
  </separator>
  <separator name="External order field" >
   <i name="OFIELD_KAPPA">      0.00000000</i>
   <v name="OFIELD_K">      0.00000000      0.00000000      0.00000000</v>
   <i name="OFIELD_Q6_NEAR">      0.00000000</i>
   <i name="OFIELD_Q6_FAR">      0.00000000</i>
   <i name="OFIELD_A">      0.00000000</i>
  </separator>
 </parameters>
 <atominfo>
  <atoms>       4 </atoms>
  <types>       1 </types>
  <array name="atoms" >
   <dimension dim="1">ion</dimension>
   <field type="string">element</field>
   <field type="int">atomtype</field>
   <set>
    <rc><c>Pt</c><c>   1</c></rc>
    <rc><c>Pt</c><c>   1</c></rc>
    <rc><c>Pt</c><c>   1</c></rc>
    <rc><c>Pt</c><c>   1</c></rc>
   </set>
  </array>
  <array name="atomtypes" >
   <dimension dim="1">type</dimension>
   <field type="int">atomspertype</field>
   <field type="string">element</field>
   <field>mass</field>
   <field>valence</field>
   <field type="string">pseudopotential</field>
   <set>
    <rc><c>   4</c><c>Pt</c><c>    195.08000000</c><c>     10.00000000</c><c> PAW_PBE Pt 05Jan2001                   </c></rc>
   </set>
  </array>
 </atominfo>
 <structure name="initialpos" >
  <crystal>
   <varray name="basis" >
    <v>       3.88000000       0.00000000       0.00000000 </v>
    <v>       0.00000000       3.88000000       0.00000000 </v>
    <v>       0.00000000       0.00000000       3.88000000 </v>
   </varray>
   <i name="volume">     58.41107200 </i>
   <varray name="rec_basis" >
    <v>       0.25773196       0.00000000       0.00000000 </v>
    <v>       0.00000000       0.25773196       0.00000000 </v>
    <v>       0.00000000       0.00000000       0.25773196 </v>
   </varray>
  </crystal>
  <varray name="positions" >
   <v>       0.00000000       0.00000000       0.00000000 </v>
   <v>       0.00000000       0.50000000       0.50000000 </v>
   <v>       0.50000000       0.00000000       0.50000000 </v>
   <v>       0.50000000       0.50000000       0.00000000 </v>
  </varray>
 </structure>
 <calculation>
  <scstep>
   <time name="dav">    1.91    1.91</time>
   <time name="total">    1.93    2.03</time>
   <energy>
    <i name="alphaZ">    398.54164635 </i>
    <i name="ewald">  -3403.14632769 </i>
    <i name="hartreedc">   -274.89293791 </i>
    <i name="XCdc">     14.76707094 </i>
    <i name="pawpsdc">   2293.79710215 </i>
    <i name="pawaedc">  -2181.03440391 </i>
    <i name="eentropy">     -0.00039922 </i>
    <i name="bandstr">    691.27546837 </i>
    <i name="atom">   2915.53815049 </i>
    <i name="e_fr_energy">    454.84536958 </i>
    <i name="e_wo_entrp">    454.84576880 </i>
    <i name="e_0_energy">    454.84546938 </i>
   </energy>
  </scstep>
  <scstep>
   <time name="dav">    1.75    1.76</time>
   <time name="total">    1.77    1.77</time>
   <energy>
    <i name="e_fr_energy">      3.50160055 </i>
    <i name="e_wo_entrp">      3.50109231 </i>
    <i name="e_0_energy">      3.50147349 </i>
   </energy>
  </scstep>
  <scstep>
   <time name="dav">    2.27    2.27</time>
   <time name="total">    2.29    2.29</time>
   <energy>
    <i name="e_fr_energy">    -24.82606126 </i>
    <i name="e_wo_entrp">    -24.82231546 </i>
    <i name="e_0_energy">    -24.82512481 </i>
   </energy>
  </scstep>
  <scstep>
   <time name="dav">    1.83    1.83</time>
   <time name="total">    1.85    1.85</time>
   <energy>
    <i name="e_fr_energy">    -25.63347329 </i>
    <i name="e_wo_entrp">    -25.62904834 </i>
    <i name="e_0_energy">    -25.63236705 </i>
   </energy>
  </scstep>
  <scstep>
   <time name="dav">    2.03    2.03</time>
   <time name="total">    2.15    2.15</time>
   <energy>
    <i name="e_fr_energy">    -25.65507674 </i>
    <i name="e_wo_entrp">    -25.65059274 </i>
    <i name="e_0_energy">    -25.65395574 </i>
   </energy>
  </scstep>
  <scstep>
   <time name="dav">    1.98    1.98</time>
   <time name="total">    2.10    2.10</time>
   <energy>
    <i name="e_fr_energy">    -24.23545583 </i>
    <i name="e_wo_entrp">    -24.23104276 </i>
    <i name="e_0_energy">    -24.23435256 </i>
   </energy>
  </scstep>
  <scstep>
   <time name="dav">    2.37    2.37</time>
   <time name="total">    2.49    2.49</time>
   <energy>
    <i name="e_fr_energy">    -24.07116314 </i>
    <i name="e_wo_entrp">    -24.06643326 </i>
    <i name="e_0_energy">    -24.06998067 </i>
   </energy>
  </scstep>
  <scstep>
   <time name="dav">    1.77    1.77</time>
   <time name="total">    1.89    1.89</time>
   <energy>
    <i name="e_fr_energy">    -24.05350283 </i>
    <i name="e_wo_entrp">    -24.04876794 </i>
    <i name="e_0_energy">    -24.05231911 </i>
   </energy>
  </scstep>
  <scstep>
   <time name="dav">    2.14    2.14</time>
   <time name="total">    2.26    2.26</time>
   <energy>
    <i name="e_fr_energy">    -24.05318396 </i>
    <i name="e_wo_entrp">    -24.04843613 </i>
    <i name="e_0_energy">    -24.05199700 </i>
   </energy>
  </scstep>
  <scstep>
   <time name="dav">    1.88    1.88</time>
   <time name="total">    2.00    2.00</time>
   <energy>
    <i name="e_fr_energy">    -24.05320543 </i>
    <i name="e_wo_entrp">    -24.04845755 </i>
    <i name="e_0_energy">    -24.05201846 </i>
   </energy>
  </scstep>
  <scstep>
   <time name="dav">    1.51    1.51</time>
   <time name="total">    1.63    1.63</time>
   <energy>
    <i name="e_fr_energy">    -24.05320824 </i>
    <i name="e_wo_entrp">    -24.04846022 </i>
    <i name="e_0_energy">    -24.05202123 </i>
   </energy>
  </scstep>
  <scstep>
   <time name="dav">    1.17    1.17</time>
   <time name="total">    1.19    1.19</time>
   <energy>
    <i name="alphaZ">    398.54164635 </i>
    <i name="ewald">  -3403.14632769 </i>
    <i name="hartreedc">   -235.29959284 </i>
    <i name="XCdc">     13.26316214 </i>
    <i name="pawpsdc">   2443.42592676 </i>
    <i name="pawaedc">  -2342.11151017 </i>
    <i name="eentropy">     -0.00474794 </i>
    <i name="bandstr">    185.74008477 </i>
    <i name="atom">   2915.53815049 </i>
    <i name="e_fr_energy">    -24.05320812 </i>
    <i name="e_wo_entrp">    -24.04846018 </i>
    <i name="e_0_energy">    -24.05202113 </i>
   </energy>
  </scstep>
  <structure>
   <crystal>
    <varray name="basis" >
     <v>       3.88000000       0.00000000       0.00000000 </v>
     <v>       0.00000000       3.88000000       0.00000000 </v>
     <v>       0.00000000       0.00000000       3.88000000 </v>
    </varray>
    <i name="volume">     58.41107200 </i>
    <varray name="rec_basis" >
     <v>       0.25773196       0.00000000       0.00000000 </v>
     <v>       0.00000000       0.25773196       0.00000000 </v>
     <v>       0.00000000       0.00000000       0.25773196 </v>
    </varray>
   </crystal>
   <varray name="positions" >
    <v>       0.00000000       0.00000000       0.00000000 </v>
    <v>       0.00000000       0.50000000       0.50000000 </v>
    <v>       0.50000000       0.00000000       0.50000000 </v>
    <v>       0.50000000       0.50000000       0.00000000 </v>
   </varray>
  </structure>
  <varray name="forces" >
   <v>       0.00000000      -0.00000000       0.00000000 </v>
   <v>      -0.00000000       0.00000000       0.00000000 </v>
   <v>      -0.00000000      -0.00000000      -0.00000000 </v>
   <v>       0.00000000      -0.00000000       0.00000000 </v>
  </varray>
  <varray name="stress" >
   <v>     254.53657765      -0.00000000      -0.00000000 </v>
   <v>      -0.00000000     254.53657765      -0.00000000 </v>
   <v>       0.00000000      -0.00000000     254.53657765 </v>
  </varray>
  <energy>
   <i name="e_fr_energy">    -24.05320812 </i>
   <i name="e_wo_entrp">    -24.05202113 </i>
   <i name="e_0_energy">     -0.00474794 </i>
  </energy>
  <time name="totalsc">   25.30   27.42</time>
  <eigenvalues>
   <array>
    <dimension dim="1">band</dimension>
    <dimension dim="2">kpoint</dimension>
    <dimension dim="3">spin</dimension>
    <field>eigene</field>
    <field>occ</field>
    <set>
     <set comment="spin 1">
      <set comment="kpoint 1">
       <r>   -2.0650    1.0000 </r>
       <r>    1.0245    1.0000 </r>
       <r>    1.0245    1.0000 </r>
       <r>    1.0245    1.0000 </r>
       <r>    1.4880    1.0000 </r>
       <r>    1.4880    1.0000 </r>
       <r>    1.4880    1.0000 </r>
       <r>    4.4389    1.0000 </r>
       <r>    4.4621    1.0000 </r>
       <r>    4.4621    1.0000 </r>
       <r>    6.7346    1.0000 </r>
       <r>    6.7346    1.0000 </r>
       <r>    8.4597    0.5436 </r>
       <r>    8.4597    0.5436 </r>
       <r>    8.4597    0.5436 </r>
       <r>    8.8131    0.0009 </r>
       <r>    8.8131    0.0009 </r>
       <r>    8.8131    0.0009 </r>
       <r>    8.9794    0.0017 </r>
       <r>    8.9794    0.0017 </r>
       <r>    8.9794    0.0017 </r>
       <r>   10.4070    0.0000 </r>
       <r>   10.4070    0.0000 </r>
       <r>   10.4070    0.0000 </r>
      </set>
      <set comment="kpoint 2">
       <r>   -1.9953    1.0000 </r>
       <r>    1.0533    1.0000 </r>
       <r>    1.0762    1.0000 </r>
       <r>    1.0762    1.0000 </r>
       <r>    1.5171    1.0000 </r>
       <r>    1.5332    1.0000 </r>
       <r>    1.5332    1.0000 </r>
       <r>    4.3951    1.0000 </r>
       <r>    4.4957    1.0000 </r>
       <r>    4.4986    1.0000 </r>
       <r>    6.6817    1.0000 </r>
       <r>    6.7541    1.0000 </r>
       <r>    8.3218    1.0286 </r>
       <r>    8.3218    1.0286 </r>
       <r>    8.3961    0.8445 </r>
       <r>    8.3961    0.8445 </r>
       <r>    8.4295    0.6980 </r>
       <r>    8.6926   -0.0443 </r>
       <r>    8.8903    0.0047 </r>
       <r>    8.9743    0.0019 </r>
       <r>    8.9743    0.0019 </r>
       <r>   10.0715    0.0000 </r>
       <r>   10.9218    0.0000 </r>
       <r>   10.9218    0.0000 </r>
      </set>
      <set comment="kpoint 3">
       <r>   -1.8569    1.0000 </r>
       <r>    1.1079    1.0000 </r>
       <r>    1.1778    1.0000 </r>
       <r>    1.1778    1.0000 </r>
       <r>    1.5749    1.0000 </r>
       <r>    1.6236    1.0000 </r>
       <r>    1.6236    1.0000 </r>
       <r>    4.3037    1.0000 </r>
       <r>    4.5687    1.0000 </r>
       <r>    4.5715    1.0000 </r>
       <r>    6.5787    1.0000 </r>
       <r>    6.7928    1.0000 </r>
       <r>    7.7292    1.0000 </r>
       <r>    7.7292    1.0000 </r>
       <r>    8.2294    1.0384 </r>
       <r>    8.2294    1.0384 </r>
       <r>    8.3648    0.9474 </r>
       <r>    8.4467    0.6117 </r>
       <r>    8.7263   -0.0291 </r>
       <r>    8.9736    0.0019 </r>
       <r>    8.9736    0.0019 </r>
       <r>    9.5249    0.0000 </r>
       <r>   11.5935    0.0000 </r>
       <r>   11.5935    0.0000 </r>
      </set>
      <set comment="kpoint 4">
       <r>   -1.6521    1.0000 </r>
       <r>    1.1814    1.0000 </r>
       <r>    1.3255    1.0000 </r>
       <r>    1.3255    1.0000 </r>
       <r>    1.6608    1.0000 </r>
       <r>    1.7586    1.0000 </r>
       <r>    1.7586    1.0000 </r>
       <r>    4.1714    1.0000 </r>
       <r>    4.6783    1.0000 </r>
       <r>    4.6804    1.0000 </r>
       <r>    6.4310    1.0000 </r>
       <r>    6.8500    1.0000 </r>
       <r>    7.1096    1.0000 </r>
       <r>    7.1096    1.0000 </r>
       <r>    8.0044    0.9966 </r>
       <r>    8.0044    0.9966 </r>
       <r>    8.0540    0.9951 </r>
       <r>    8.2480    1.0461 </r>
       <r>    8.5224    0.2282 </r>
       <r>    8.9289    0.0035 </r>
       <r>    8.9737    0.0019 </r>
       <r>    8.9737    0.0019 </r>
       <r>   12.3119    0.0000 </r>
       <r>   12.3119    0.0000 </r>
      </set>
      <set comment="kpoint 5">
       <r>   -1.3847    1.0000 </r>
       <r>    1.2623    1.0000 </r>
       <r>    1.5129    1.0000 </r>
       <r>    1.5129    1.0000 </r>
       <r>    1.7736    1.0000 </r>
       <r>    1.9377    1.0000 </r>
       <r>    1.9377    1.0000 </r>
       <r>    4.0047    1.0000 </r>
       <r>    4.8229    1.0000 </r>
       <r>    4.8245    1.0000 </r>
       <r>    6.2473    1.0000 </r>
       <r>    6.5009    1.0000 </r>
       <r>    6.5009    1.0000 </r>
       <r>    6.9248    1.0000 </r>
       <r>    7.5029    1.0000 </r>
       <r>    7.7232    1.0000 </r>
       <r>    7.7232    1.0000 </r>
       <r>    8.0366    0.9955 </r>
       <r>    8.3416    0.9996 </r>
       <r>    8.4053    0.8077 </r>
       <r>    8.9740    0.0019 </r>
       <r>    8.9740    0.0019 </r>
       <r>   13.0461    0.0000 </r>
       <r>   13.0461    0.0000 </r>
      </set>
      <set comment="kpoint 6">
       <r>   -1.0604    1.0000 </r>
       <r>    1.3321    1.0000 </r>
       <r>    1.7304    1.0000 </r>
       <r>    1.7304    1.0000 </r>
       <r>    1.9120    1.0000 </r>
       <r>    2.1597    1.0000 </r>
       <r>    2.1597    1.0000 </r>
       <r>    3.8105    1.0000 </r>
       <r>    5.0002    1.0000 </r>
       <r>    5.0031    1.0000 </r>
       <r>    5.9141    1.0000 </r>
       <r>    5.9141    1.0000 </r>
       <r>    6.0403    1.0000 </r>
       <r>    6.8706    1.0000 </r>
       <r>    7.0157    1.0000 </r>
       <r>    7.4041    1.0000 </r>
       <r>    7.4041    1.0000 </r>
       <r>    7.7367    1.0000 </r>
       <r>    7.9594    0.9982 </r>
       <r>    8.1985    1.0237 </r>
       <r>    8.9744    0.0019 </r>
       <r>    8.9744    0.0019 </r>
       <r>   13.7801    0.0000 </r>
       <r>   13.7801    0.0000 </r>
      </set>
      <set comment="kpoint 7">
       <r>   -0.6879    1.0000 </r>
       <r>    1.3638    1.0000 </r>
       <r>    1.9632    1.0000 </r>
       <r>    1.9632    1.0000 </r>
       <r>    2.0741    1.0000 </r>
       <r>    2.4232    1.0000 </r>
       <r>    2.4232    1.0000 </r>
       <r>    3.5961    1.0000 </r>
       <r>    5.2033    1.0000 </r>
       <r>    5.2150    1.0000 </r>
       <r>    5.3547    1.0000 </r>
       <r>    5.3547    1.0000 </r>
       <r>    5.8306    1.0000 </r>
       <r>    6.2673    1.0000 </r>
       <r>    7.0727    1.0000 </r>
       <r>    7.0727    1.0000 </r>
       <r>    7.1212    1.0000 </r>
       <r>    7.3970    1.0000 </r>
       <r>    7.5496    1.0000 </r>
       <r>    8.0634    0.9951 </r>
       <r>    8.9749    0.0019 </r>
       <r>    8.9749    0.0019 </r>
       <r>   14.4969    0.0000 </r>
       <r>   14.4969    0.0000 </r>
      </set>
      <set comment="kpoint 8">
       <r>   -0.2800    1.0000 </r>
       <r>    1.3222    1.0000 </r>
       <r>    2.1887    1.0000 </r>
       <r>    2.1887    1.0000 </r>
       <r>    2.2574    1.0000 </r>
       <r>    2.7266    1.0000 </r>
       <r>    2.7266    1.0000 </r>
       <r>    3.3689    1.0000 </r>
       <r>    4.8262    1.0000 </r>
       <r>    4.8262    1.0000 </r>
       <r>    5.3862    1.0000 </r>
       <r>    5.4584    1.0000 </r>
       <r>    5.6825    1.0000 </r>
       <r>    5.7721    1.0000 </r>
       <r>    6.7628    1.0000 </r>
       <r>    6.7628    1.0000 </r>
       <r>    7.0443    1.0000 </r>
       <r>    7.1580    1.0000 </r>
       <r>    7.2391    1.0000 </r>
       <r>    7.9258    0.9990 </r>
       <r>    8.9754    0.0019 </r>
       <r>    8.9754    0.0019 </r>
       <r>   15.1602    0.0000 </r>
       <r>   15.1602    0.0000 </r>
      </set>
      <set comment="kpoint 9">
       <r>    0.1435    1.0000 </r>
       <r>    1.1747    1.0000 </r>
       <r>    2.3746    1.0000 </r>
       <r>    2.3746    1.0000 </r>
       <r>    2.4590    1.0000 </r>
       <r>    3.0692    1.0000 </r>
       <r>    3.0692    1.0000 </r>
       <r>    3.1356    1.0000 </r>
       <r>    4.3315    1.0000 </r>
       <r>    4.3315    1.0000 </r>
       <r>    5.3545    1.0000 </r>
       <r>    5.4360    1.0000 </r>
       <r>    5.7313    1.0000 </r>
       <r>    5.8145    1.0000 </r>
       <r>    6.5159    1.0000 </r>
       <r>    6.5159    1.0000 </r>
       <r>    6.6931    1.0000 </r>
       <r>    6.7831    1.0000 </r>
       <r>    7.3671    1.0000 </r>
       <r>    7.7849    1.0000 </r>
       <r>    8.9757    0.0018 </r>
       <r>    8.9757    0.0018 </r>
       <r>   15.6240    0.0000 </r>
       <r>   15.6240    0.0000 </r>
      </set>
      <set comment="kpoint 10">
       <r>    0.5535    1.0000 </r>
       <r>    0.9109    1.0000 </r>
       <r>    2.4820    1.0000 </r>
       <r>    2.4820    1.0000 </r>
       <r>    2.6755    1.0000 </r>
       <r>    2.9026    1.0000 </r>
       <r>    3.4507    1.0000 </r>
       <r>    3.4507    1.0000 </r>
       <r>    3.8732    1.0000 </r>
       <r>    3.8732    1.0000 </r>
       <r>    5.2667    1.0000 </r>
       <r>    5.2755    1.0000 </r>
       <r>    6.0307    1.0000 </r>
       <r>    6.1006    1.0000 </r>
       <r>    6.3530    1.0000 </r>
       <r>    6.3766    1.0000 </r>
       <r>    6.3766    1.0000 </r>
       <r>    6.4286    1.0000 </r>
       <r>    7.5027    1.0000 </r>
       <r>    7.6430    1.0000 </r>
       <r>    8.9759    0.0018 </r>
       <r>    8.9759    0.0018 </r>
       <r>   15.7431    0.0000 </r>
       <r>   15.7431    0.0000 </r>
      </set>
      <set comment="kpoint 11">
       <r>   -1.9262    1.0000 </r>
       <r>    1.1053    1.0000 </r>
       <r>    1.1053    1.0000 </r>
       <r>    1.1235    1.0000 </r>
       <r>    1.5619    1.0000 </r>
       <r>    1.5619    1.0000 </r>
       <r>    1.5813    1.0000 </r>
       <r>    4.3698    1.0000 </r>
       <r>    4.5128    1.0000 </r>
       <r>    4.5319    1.0000 </r>
       <r>    6.6663    1.0000 </r>
       <r>    6.7395    1.0000 </r>
       <r>    8.0403    0.9954 </r>
       <r>    8.1590    1.0079 </r>
       <r>    8.1590    1.0079 </r>
       <r>    8.3004    1.0458 </r>
       <r>    8.3879    0.8752 </r>
       <r>    8.3879    0.8752 </r>
       <r>    8.8886    0.0048 </r>
       <r>    8.8886    0.0048 </r>
       <r>    8.9253    0.0036 </r>
       <r>   10.6008    0.0000 </r>
       <r>   10.6008    0.0000 </r>
       <r>   11.3076    0.0000 </r>
      </set>
      <set comment="kpoint 12">
       <r>   -1.7891    1.0000 </r>
       <r>    1.1604    1.0000 </r>
       <r>    1.2075    1.0000 </r>
       <r>    1.2167    1.0000 </r>
       <r>    1.6190    1.0000 </r>
       <r>    1.6515    1.0000 </r>
       <r>    1.6769    1.0000 </r>
       <r>    4.2911    1.0000 </r>
       <r>    4.5751    1.0000 </r>
       <r>    4.5999    1.0000 </r>
       <r>    6.5788    1.0000 </r>
       <r>    6.7695    1.0000 </r>
       <r>    7.5536    1.0000 </r>
       <r>    7.5627    1.0000 </r>
       <r>    7.8845    0.9996 </r>
       <r>    8.1536    1.0062 </r>
       <r>    8.2316    1.0394 </r>
       <r>    8.3175    1.0331 </r>
       <r>    8.7328   -0.0260 </r>
       <r>    8.8854    0.0048 </r>
       <r>    8.8963    0.0046 </r>
       <r>   10.0803    0.0000 </r>
       <r>   11.2621    0.0000 </r>
       <r>   11.8909    0.0000 </r>
      </set>
      <set comment="kpoint 13">
       <r>   -1.5863    1.0000 </r>
       <r>    1.2348    1.0000 </r>
       <r>    1.3528    1.0000 </r>
       <r>    1.3561    1.0000 </r>
       <r>    1.7038    1.0000 </r>
       <r>    1.7855    1.0000 </r>
       <r>    1.8187    1.0000 </r>
       <r>    4.1659    1.0000 </r>
       <r>    4.6805    1.0000 </r>
       <r>    4.7006    1.0000 </r>
       <r>    6.4390    1.0000 </r>
       <r>    6.8295    1.0000 </r>
       <r>    6.9493    1.0000 </r>
       <r>    6.9979    1.0000 </r>
       <r>    7.4983    1.0000 </r>
       <r>    7.9421    0.9986 </r>
       <r>    8.0172    0.9962 </r>
       <r>    8.1779    1.0147 </r>
       <r>    8.5366    0.1682 </r>
       <r>    8.8827    0.0049 </r>
       <r>    8.8830    0.0049 </r>
       <r>    9.4971    0.0000 </r>
       <r>   11.9532    0.0000 </r>
       <r>   12.5572    0.0000 </r>
      </set>
      <set comment="kpoint 14">
       <r>   -1.3214    1.0000 </r>
       <r>    1.3166    1.0000 </r>
       <r>    1.5274    1.0000 </r>
       <r>    1.5448    1.0000 </r>
       <r>    1.8151    1.0000 </r>
       <r>    1.9630    1.0000 </r>
       <r>    2.0039    1.0000 </r>
       <r>    4.0046    1.0000 </r>
       <r>    4.8229    1.0000 </r>
       <r>    4.8319    1.0000 </r>
       <r>    6.2650    1.0000 </r>
       <r>    6.3497    1.0000 </r>
       <r>    6.4280    1.0000 </r>
       <r>    6.9106    1.0000 </r>
       <r>    7.0188    1.0000 </r>
       <r>    7.6749    1.0000 </r>
       <r>    7.7475    1.0000 </r>
       <r>    7.9558    0.9983 </r>
       <r>    8.3248    1.0250 </r>
       <r>    8.8767    0.0049 </r>
       <r>    8.8806    0.0049 </r>
       <r>    8.9506    0.0027 </r>
       <r>   12.6436    0.0000 </r>
       <r>   13.2589    0.0000 </r>
      </set>
      <set comment="kpoint 15">
       <r>   -1.0000    1.0000 </r>
       <r>    1.3873    1.0000 </r>
       <r>    1.7340    1.0000 </r>
       <r>    1.7642    1.0000 </r>
       <r>    1.9516    1.0000 </r>
       <r>    2.1829    1.0000 </r>
       <r>    2.2280    1.0000 </r>
       <r>    3.8155    1.0000 </r>
       <r>    4.9854    1.0000 </r>
       <r>    5.0017    1.0000 </r>
       <r>    5.7740    1.0000 </r>
       <r>    5.8668    1.0000 </r>
       <r>    6.0750    1.0000 </r>
       <r>    6.4901    1.0000 </r>
       <r>    7.0101    1.0000 </r>
       <r>    7.3693    1.0000 </r>
       <r>    7.4385    1.0000 </r>
       <r>    7.6652    1.0000 </r>
       <r>    8.0627    0.9951 </r>
       <r>    8.5193    0.2422 </r>
       <r>    8.8738    0.0049 </r>
       <r>    8.8791    0.0049 </r>
       <r>   13.3112    0.0000 </r>
       <r>   13.9705    0.0000 </r>
      </set>
      <set comment="kpoint 16">
       <r>   -0.6307    1.0000 </r>
       <r>    1.4194    1.0000 </r>
       <r>    1.9623    1.0000 </r>
       <r>    1.9996    1.0000 </r>
       <r>    2.1113    1.0000 </r>
       <r>    2.4436    1.0000 </r>
       <r>    2.4846    1.0000 </r>
       <r>    3.6060    1.0000 </r>
       <r>    5.1437    1.0000 </r>
       <r>    5.2114    1.0000 </r>
       <r>    5.2278    1.0000 </r>
       <r>    5.3255    1.0000 </r>
       <r>    5.9038    1.0000 </r>
       <r>    5.9769    1.0000 </r>
       <r>    7.0505    1.0000 </r>
       <r>    7.1141    1.0000 </r>
       <r>    7.1259    1.0000 </r>
       <r>    7.3373    1.0000 </r>
       <r>    7.7013    1.0000 </r>
       <r>    8.2425    1.0440 </r>
       <r>    8.8728    0.0049 </r>
       <r>    8.8780    0.0049 </r>
       <r>   13.9291    0.0000 </r>
       <r>   14.6676    0.0000 </r>
      </set>
      <set comment="kpoint 17">
       <r>   -0.2260    1.0000 </r>
       <r>    1.3771    1.0000 </r>
       <r>    2.1937    1.0000 </r>
       <r>    2.2285    1.0000 </r>
       <r>    2.2918    1.0000 </r>
       <r>    2.7433    1.0000 </r>
       <r>    2.7673    1.0000 </r>
       <r>    3.3835    1.0000 </r>
       <r>    4.7155    1.0000 </r>
       <r>    4.8106    1.0000 </r>
       <r>    5.2383    1.0000 </r>
       <r>    5.4514    1.0000 </r>
       <r>    5.5481    1.0000 </r>
       <r>    5.8368    1.0000 </r>
       <r>    6.7528    1.0000 </r>
       <r>    6.8063    1.0000 </r>
       <r>    6.9957    1.0000 </r>
       <r>    7.2558    1.0000 </r>
       <r>    7.3007    1.0000 </r>
       <r>    8.0456    0.9953 </r>
       <r>    8.8728    0.0049 </r>
       <r>    8.8770    0.0049 </r>
       <r>   14.4593    0.0000 </r>
       <r>   15.2669    0.0000 </r>
      </set>
      <set comment="kpoint 18">
       <r>    0.1949    1.0000 </r>
       <r>    1.2276    1.0000 </r>
       <r>    2.3945    1.0000 </r>
       <r>    2.4175    1.0000 </r>
       <r>    2.4902    1.0000 </r>
       <r>    3.0754    1.0000 </r>
       <r>    3.0806    1.0000 </r>
       <r>    3.1548    1.0000 </r>
       <r>    4.2418    1.0000 </r>
       <r>    4.3268    1.0000 </r>
       <r>    5.2006    1.0000 </r>
       <r>    5.2582    1.0000 </r>
       <r>    5.7188    1.0000 </r>
       <r>    5.9664    1.0000 </r>
       <r>    6.5186    1.0000 </r>
       <r>    6.5555    1.0000 </r>
       <r>    6.6550    1.0000 </r>
       <r>    6.9113    1.0000 </r>
       <r>    7.3975    1.0000 </r>
       <r>    7.8720    0.9997 </r>
       <r>    8.8733    0.0049 </r>
       <r>    8.8760    0.0049 </r>
       <r>   14.8609    0.0000 </r>
       <r>   15.4080    0.0000 </r>
      </set>
      <set comment="kpoint 19">
       <r>    0.6038    1.0000 </r>
       <r>    0.9618    1.0000 </r>
       <r>    2.5175    1.0000 </r>
       <r>    2.5250    1.0000 </r>
       <r>    2.7030    1.0000 </r>
       <r>    2.9262    1.0000 </r>
       <r>    3.4147    1.0000 </r>
       <r>    3.4519    1.0000 </r>
       <r>    3.8147    1.0000 </r>
       <r>    3.8798    1.0000 </r>
       <r>    5.1265    1.0000 </r>
       <r>    5.1276    1.0000 </r>
       <r>    6.0110    1.0000 </r>
       <r>    6.2267    1.0000 </r>
       <r>    6.3245    1.0000 </r>
       <r>    6.3930    1.0000 </r>
       <r>    6.4063    1.0000 </r>
       <r>    6.5495    1.0000 </r>
       <r>    7.5487    1.0000 </r>
       <r>    7.7072    1.0000 </r>
       <r>    8.8742    0.0049 </r>
       <r>    8.8751    0.0049 </r>
       <r>   15.1263    0.0000 </r>
       <r>   15.2976    0.0000 </r>
      </set>
      <set comment="kpoint 20">
       <r>   -1.6546    1.0000 </r>
       <r>    1.2637    1.0000 </r>
       <r>    1.2637    1.0000 </r>
       <r>    1.2945    1.0000 </r>
       <r>    1.7071    1.0000 </r>
       <r>    1.7071    1.0000 </r>
       <r>    1.7815    1.0000 </r>
       <r>    4.2409    1.0000 </r>
       <r>    4.6131    1.0000 </r>
       <r>    4.6575    1.0000 </r>
       <r>    6.5402    1.0000 </r>
       <r>    6.7642    1.0000 </r>
       <r>    7.2171    1.0000 </r>
       <r>    7.2760    1.0000 </r>
       <r>    7.2760    1.0000 </r>
       <r>    8.0154    0.9962 </r>
       <r>    8.1924    1.0209 </r>
       <r>    8.1924    1.0209 </r>
       <r>    8.7227   -0.0308 </r>
       <r>    8.7227   -0.0308 </r>
       <r>    8.8143    0.0011 </r>
       <r>   10.7285    0.0000 </r>
       <r>   10.7285    0.0000 </r>
       <r>   12.3853    0.0000 </r>
      </set>
      <set comment="kpoint 21">
       <r>   -1.4556    1.0000 </r>
       <r>    1.3397    1.0000 </r>
       <r>    1.4107    1.0000 </r>
       <r>    1.4141    1.0000 </r>
       <r>    1.7896    1.0000 </r>
       <r>    1.8388    1.0000 </r>
       <r>    1.9334    1.0000 </r>
       <r>    4.1396    1.0000 </r>
       <r>    4.7005    1.0000 </r>
       <r>    4.7416    1.0000 </r>
       <r>    6.4325    1.0000 </r>
       <r>    6.6723    1.0000 </r>
       <r>    6.7735    1.0000 </r>
       <r>    6.8132    1.0000 </r>
       <r>    6.9023    1.0000 </r>
       <r>    7.8221    0.9999 </r>
       <r>    8.0032    0.9967 </r>
       <r>    8.0828    0.9954 </r>
       <r>    8.5106    0.2822 </r>
       <r>    8.7127   -0.0356 </r>
       <r>    8.7583   -0.0146 </r>
       <r>   10.1266    0.0000 </r>
       <r>   11.3876    0.0000 </r>
       <r>   12.9866    0.0000 </r>
      </set>
      <set comment="kpoint 22">
       <r>   -1.1957    1.0000 </r>
       <r>    1.4235    1.0000 </r>
       <r>    1.5643    1.0000 </r>
       <r>    1.6055    1.0000 </r>
       <r>    1.8980    1.0000 </r>
       <r>    2.0132    1.0000 </r>
       <r>    2.1263    1.0000 </r>
       <r>    3.9954    1.0000 </r>
       <r>    4.8331    1.0000 </r>
       <r>    4.8479    1.0000 </r>
       <r>    6.0886    1.0000 </r>
       <r>    6.2790    1.0000 </r>
       <r>    6.2815    1.0000 </r>
       <r>    6.4687    1.0000 </r>
       <r>    6.9016    1.0000 </r>
       <r>    7.5787    1.0000 </r>
       <r>    7.7575    1.0000 </r>
       <r>    7.8873    0.9995 </r>
       <r>    8.2748    1.0516 </r>
       <r>    8.7052   -0.0391 </r>
       <r>    8.7245   -0.0299 </r>
       <r>    9.5455    0.0000 </r>
       <r>   12.0328    0.0000 </r>
       <r>   13.6422    0.0000 </r>
      </set>
      <set comment="kpoint 23">
       <r>   -0.8803    1.0000 </r>
       <r>    1.4962    1.0000 </r>
       <r>    1.7527    1.0000 </r>
       <r>    1.8286    1.0000 </r>
       <r>    2.0306    1.0000 </r>
       <r>    2.2291    1.0000 </r>
       <r>    2.3512    1.0000 </r>
       <r>    3.8198    1.0000 </r>
       <r>    4.9632    1.0000 </r>
       <r>    5.0060    1.0000 </r>
       <r>    5.5320    1.0000 </r>
       <r>    5.7694    1.0000 </r>
       <r>    6.0107    1.0000 </r>
       <r>    6.1197    1.0000 </r>
       <r>    7.0169    1.0000 </r>
       <r>    7.2979    1.0000 </r>
       <r>    7.4699    1.0000 </r>
       <r>    7.6152    1.0000 </r>
       <r>    8.0141    0.9963 </r>
       <r>    8.6996   -0.0415 </r>
       <r>    8.7048   -0.0392 </r>
       <r>    9.0404    0.0006 </r>
       <r>   12.6447    0.0000 </r>
       <r>   14.3186    0.0000 </r>
      </set>
      <set comment="kpoint 24">
       <r>   -0.5175    1.0000 </r>
       <r>    1.5290    1.0000 </r>
       <r>    1.9705    1.0000 </r>
       <r>    2.0694    1.0000 </r>
       <r>    2.1855    1.0000 </r>
       <r>    2.4844    1.0000 </r>
       <r>    2.5959    1.0000 </r>
       <r>    3.6221    1.0000 </r>
       <r>    5.0079    1.0000 </r>
       <r>    5.0608    1.0000 </r>
       <r>    5.2123    1.0000 </r>
       <r>    5.2649    1.0000 </r>
       <r>    5.5759    1.0000 </r>
       <r>    5.9929    1.0000 </r>
       <r>    7.0030    1.0000 </r>
       <r>    7.1539    1.0000 </r>
       <r>    7.1621    1.0000 </r>
       <r>    7.2983    1.0000 </r>
       <r>    7.7058    1.0000 </r>
       <r>    8.6391   -0.0475 </r>
       <r>    8.6939   -0.0438 </r>
       <r>    8.6953   -0.0433 </r>
       <r>   13.2024    0.0000 </r>
       <r>   14.9540    0.0000 </r>
      </set>
      <set comment="kpoint 25">
       <r>   -0.1193    1.0000 </r>
       <r>    1.4852    1.0000 </r>
       <r>    2.2053    1.0000 </r>
       <r>    2.3054    1.0000 </r>
       <r>    2.3603    1.0000 </r>
       <r>    2.7764    1.0000 </r>
       <r>    2.8464    1.0000 </r>
       <r>    3.4104    1.0000 </r>
       <r>    4.5218    1.0000 </r>
       <r>    4.7776    1.0000 </r>
       <r>    5.0865    1.0000 </r>
       <r>    5.2206    1.0000 </r>
       <r>    5.4494    1.0000 </r>
       <r>    5.9734    1.0000 </r>
       <r>    6.7281    1.0000 </r>
       <r>    6.8630    1.0000 </r>
       <r>    6.9645    1.0000 </r>
       <r>    7.3091    1.0000 </r>
       <r>    7.3536    1.0000 </r>
       <r>    8.3314    1.0162 </r>
       <r>    8.6883   -0.0459 </r>
       <r>    8.6919   -0.0446 </r>
       <r>   13.6843    0.0000 </r>
       <r>   15.0326    0.0000 </r>
      </set>
      <set comment="kpoint 26">
       <r>    0.2962    1.0000 </r>
       <r>    1.3315    1.0000 </r>
       <r>    2.4288    1.0000 </r>
       <r>    2.5018    1.0000 </r>
       <r>    2.5521    1.0000 </r>
       <r>    3.0948    1.0000 </r>
       <r>    3.1026    1.0000 </r>
       <r>    3.1917    1.0000 </r>
       <r>    4.0824    1.0000 </r>
       <r>    4.3159    1.0000 </r>
       <r>    4.9930    1.0000 </r>
       <r>    5.0232    1.0000 </r>
       <r>    5.7132    1.0000 </r>
       <r>    6.1015    1.0000 </r>
       <r>    6.5168    1.0000 </r>
       <r>    6.6106    1.0000 </r>
       <r>    6.6310    1.0000 </r>
       <r>    6.9898    1.0000 </r>
       <r>    7.4801    1.0000 </r>
       <r>    8.0825    0.9954 </r>
       <r>    8.6860   -0.0467 </r>
       <r>    8.6892   -0.0456 </r>
       <r>   14.0764    0.0000 </r>
       <r>   14.8351    0.0000 </r>
      </set>
      <set comment="kpoint 27">
       <r>    0.7023    1.0000 </r>
       <r>    1.0615    1.0000 </r>
       <r>    2.5842    1.0000 </r>
       <r>    2.6098    1.0000 </r>
       <r>    2.7574    1.0000 </r>
       <r>    2.9722    1.0000 </r>
       <r>    3.3542    1.0000 </r>
       <r>    3.4463    1.0000 </r>
       <r>    3.7171    1.0000 </r>
       <r>    3.8893    1.0000 </r>
       <r>    4.9082    1.0000 </r>
       <r>    4.9376    1.0000 </r>
       <r>    6.0004    1.0000 </r>
       <r>    6.3076    1.0000 </r>
       <r>    6.3396    1.0000 </r>
       <r>    6.4146    1.0000 </r>
       <r>    6.4487    1.0000 </r>
       <r>    6.6443    1.0000 </r>
       <r>    7.6652    1.0000 </r>
       <r>    7.8646    0.9997 </r>
       <r>    8.6859   -0.0468 </r>
       <r>    8.6871   -0.0464 </r>
       <r>   14.3820    0.0000 </r>
       <r>   14.6243    0.0000 </r>
      </set>
      <set comment="kpoint 28">
       <r>   -1.2623    1.0000 </r>
       <r>    1.4927    1.0000 </r>
       <r>    1.4927    1.0000 </r>
       <r>    1.5029    1.0000 </r>
       <r>    1.9179    1.0000 </r>
       <r>    1.9179    1.0000 </r>
       <r>    2.0946    1.0000 </r>
       <r>    4.0734    1.0000 </r>
       <r>    4.7610    1.0000 </r>
       <r>    4.8007    1.0000 </r>
       <r>    6.3201    1.0000 </r>
       <r>    6.3201    1.0000 </r>
       <r>    6.3749    1.0000 </r>
       <r>    6.4488    1.0000 </r>
       <r>    6.8435    1.0000 </r>
       <r>    7.6517    1.0000 </r>
       <r>    7.9283    0.9989 </r>
       <r>    7.9283    0.9989 </r>
       <r>    8.4853    0.4092 </r>
       <r>    8.4853    0.4092 </r>
       <r>    8.6475   -0.0503 </r>
       <r>   10.7554    0.0000 </r>
       <r>   10.7554    0.0000 </r>
       <r>   13.5316    0.0000 </r>
      </set>
      <set comment="kpoint 29">
       <r>   -1.0098    1.0000 </r>
       <r>    1.5797    1.0000 </r>
       <r>    1.6315    1.0000 </r>
       <r>    1.6879    1.0000 </r>
       <r>    2.0216    1.0000 </r>
       <r>    2.0877    1.0000 </r>
       <r>    2.2924    1.0000 </r>
       <r>    3.9619    1.0000 </r>
       <r>    4.8700    1.0000 </r>
       <r>    4.8736    1.0000 </r>
       <r>    5.7614    1.0000 </r>
       <r>    5.9254    1.0000 </r>
       <r>    6.0529    1.0000 </r>
       <r>    6.2635    1.0000 </r>
       <r>    6.9339    1.0000 </r>
       <r>    7.4371    1.0000 </r>
       <r>    7.7161    1.0000 </r>
       <r>    7.7733    1.0000 </r>
       <r>    8.2248    1.0363 </r>
       <r>    8.4669    0.5059 </r>
       <r>    8.5657    0.0677 </r>
       <r>   10.1401    0.0000 </r>
       <r>   11.3650    0.0000 </r>
       <r>   14.1417    0.0000 </r>
      </set>
      <set comment="kpoint 30">
       <r>   -0.7034    1.0000 </r>
       <r>    1.6553    1.0000 </r>
       <r>    1.7970    1.0000 </r>
       <r>    1.9165    1.0000 </r>
       <r>    2.1485    1.0000 </r>
       <r>    2.2976    1.0000 </r>
       <r>    2.5143    1.0000 </r>
       <r>    3.8130    1.0000 </r>
       <r>    4.9425    1.0000 </r>
       <r>    5.0283    1.0000 </r>
       <r>    5.2314    1.0000 </r>
       <r>    5.5221    1.0000 </r>
       <r>    5.6178    1.0000 </r>
       <r>    6.1351    1.0000 </r>
       <r>    7.0691    1.0000 </r>
       <r>    7.1883    1.0000 </r>
       <r>    7.4590    1.0000 </r>
       <r>    7.5374    1.0000 </r>
       <r>    7.9455    0.9986 </r>
       <r>    8.4543    0.5722 </r>
       <r>    8.5105    0.2829 </r>
       <r>    9.5879    0.0000 </r>
       <r>   11.9401    0.0000 </r>
       <r>   14.7568    0.0000 </r>
      </set>
      <set comment="kpoint 31">
       <r>   -0.3506    1.0000 </r>
       <r>    1.6893    1.0000 </r>
       <r>    1.9973    1.0000 </r>
       <r>    2.1653    1.0000 </r>
       <r>    2.2962    1.0000 </r>
       <r>    2.5450    1.0000 </r>
       <r>    2.7438    1.0000 </r>
       <r>    3.6374    1.0000 </r>
       <r>    4.7354    1.0000 </r>
       <r>    4.9833    1.0000 </r>
       <r>    5.1524    1.0000 </r>
       <r>    5.1690    1.0000 </r>
       <r>    5.2246    1.0000 </r>
       <r>    6.0417    1.0000 </r>
       <r>    6.9251    1.0000 </r>
       <r>    7.1765    1.0000 </r>
       <r>    7.2363    1.0000 </r>
       <r>    7.2443    1.0000 </r>
       <r>    7.6429    1.0000 </r>
       <r>    8.4455    0.6178 </r>
       <r>    8.4751    0.4627 </r>
       <r>    9.1196    0.0001 </r>
       <r>   12.4651    0.0000 </r>
       <r>   14.7042    0.0000 </r>
      </set>
      <set comment="kpoint 32">
       <r>    0.0374    1.0000 </r>
       <r>    1.6426    1.0000 </r>
       <r>    2.2263    1.0000 </r>
       <r>    2.4132    1.0000 </r>
       <r>    2.4622    1.0000 </r>
       <r>    2.8257    1.0000 </r>
       <r>    2.9591    1.0000 </r>
       <r>    3.4447    1.0000 </r>
       <r>    4.2802    1.0000 </r>
       <r>    4.7242    1.0000 </r>
       <r>    4.8667    1.0000 </r>
       <r>    4.9573    1.0000 </r>
       <r>    5.4543    1.0000 </r>
       <r>    6.0421    1.0000 </r>
       <r>    6.6804    1.0000 </r>
       <r>    6.8947    1.0000 </r>
       <r>    6.9254    1.0000 </r>
       <r>    7.3156    1.0000 </r>
       <r>    7.4285    1.0000 </r>
       <r>    8.4393    0.6492 </r>
       <r>    8.4534    0.5767 </r>
       <r>    8.7330   -0.0259 </r>
       <r>   12.9263    0.0000 </r>
       <r>   14.4235    0.0000 </r>
      </set>
      <set comment="kpoint 33">
       <r>    0.4443    1.0000 </r>
       <r>    1.4820    1.0000 </r>
       <r>    2.4675    1.0000 </r>
       <r>    2.6235    1.0000 </r>
       <r>    2.6435    1.0000 </r>
       <r>    3.1331    1.0000 </r>
       <r>    3.1389    1.0000 </r>
       <r>    3.2427    1.0000 </r>
       <r>    3.8811    1.0000 </r>
       <r>    4.2960    1.0000 </r>
       <r>    4.7066    1.0000 </r>
       <r>    4.8629    1.0000 </r>
       <r>    5.7114    1.0000 </r>
       <r>    6.1613    1.0000 </r>
       <r>    6.4981    1.0000 </r>
       <r>    6.6029    1.0000 </r>
       <r>    6.6479    1.0000 </r>
       <r>    6.9794    1.0000 </r>
       <r>    7.6416    1.0000 </r>
       <r>    8.4093    0.7904 </r>
       <r>    8.4354    0.6691 </r>
       <r>    8.4412    0.6398 </r>
       <r>   13.3165    0.0000 </r>
       <r>   14.1667    0.0000 </r>
      </set>
      <set comment="kpoint 34">
       <r>    0.8454    1.0000 </r>
       <r>    1.2055    1.0000 </r>
       <r>    2.6708    1.0000 </r>
       <r>    2.7335    1.0000 </r>
       <r>    2.8369    1.0000 </r>
       <r>    3.0382    1.0000 </r>
       <r>    3.2899    1.0000 </r>
       <r>    3.4031    1.0000 </r>
       <r>    3.6271    1.0000 </r>
       <r>    3.8975    1.0000 </r>
       <r>    4.6790    1.0000 </r>
       <r>    4.7495    1.0000 </r>
       <r>    5.9910    1.0000 </r>
       <r>    6.2894    1.0000 </r>
       <r>    6.3771    1.0000 </r>
       <r>    6.4230    1.0000 </r>
       <r>    6.4777    1.0000 </r>
       <r>    6.6584    1.0000 </r>
       <r>    7.8742    0.9997 </r>
       <r>    8.1278    1.0000 </r>
       <r>    8.4338    0.6768 </r>
       <r>    8.4353    0.6693 </r>
       <r>   13.6401    0.0000 </r>
       <r>   13.9148    0.0000 </r>
      </set>
      <set comment="kpoint 35">
       <r>   -0.7671    1.0000 </r>
       <r>    1.7337    1.0000 </r>
       <r>    1.7795    1.0000 </r>
       <r>    1.7795    1.0000 </r>
       <r>    2.1854    1.0000 </r>
       <r>    2.1854    1.0000 </r>
       <r>    2.4897    1.0000 </r>
       <r>    3.8917    1.0000 </r>
       <r>    4.9023    1.0000 </r>
       <r>    4.9529    1.0000 </r>
       <r>    5.4030    1.0000 </r>
       <r>    5.4030    1.0000 </r>
       <r>    5.7578    1.0000 </r>
       <r>    6.1937    1.0000 </r>
       <r>    7.0328    1.0000 </r>
       <r>    7.2550    1.0000 </r>
       <r>    7.6017    1.0000 </r>
       <r>    7.6017    1.0000 </r>
       <r>    8.1880    1.0190 </r>
       <r>    8.1880    1.0190 </r>
       <r>    8.4295    0.6980 </r>
       <r>   10.7178    0.0000 </r>
       <r>   10.7178    0.0000 </r>
       <r>   14.6912    0.0000 </r>
      </set>
      <set comment="kpoint 36">
       <r>   -0.4727    1.0000 </r>
       <r>    1.8594    1.0000 </r>
       <r>    1.8727    1.0000 </r>
       <r>    2.0147    1.0000 </r>
       <r>    2.3046    1.0000 </r>
       <r>    2.3877    1.0000 </r>
       <r>    2.7040    1.0000 </r>
       <r>    3.7828    1.0000 </r>
       <r>    4.9081    1.0000 </r>
       <r>    4.9263    1.0000 </r>
       <r>    5.0478    1.0000 </r>
       <r>    5.0836    1.0000 </r>
       <r>    5.4112    1.0000 </r>
       <r>    6.0970    1.0000 </r>
       <r>    7.0412    1.0000 </r>
       <r>    7.1919    1.0000 </r>
       <r>    7.3809    1.0000 </r>
       <r>    7.4090    1.0000 </r>
       <r>    7.8866    0.9995 </r>
       <r>    8.1643    1.0096 </r>
       <r>    8.3248    1.0250 </r>
       <r>   10.1303    0.0000 </r>
       <r>   11.2651    0.0000 </r>
       <r>   14.5105    0.0000 </r>
      </set>
      <set comment="kpoint 37">
       <r>   -0.1335    1.0000 </r>
       <r>    1.8947    1.0000 </r>
       <r>    2.0487    1.0000 </r>
       <r>    2.2734    1.0000 </r>
       <r>    2.4425    1.0000 </r>
       <r>    2.6254    1.0000 </r>
       <r>    2.9158    1.0000 </r>
       <r>    3.6421    1.0000 </r>
       <r>    4.4457    1.0000 </r>
       <r>    4.7371    1.0000 </r>
       <r>    4.9200    1.0000 </r>
       <r>    5.0342    1.0000 </r>
       <r>    5.2597    1.0000 </r>
       <r>    6.0242    1.0000 </r>
       <r>    6.8131    1.0000 </r>
       <r>    7.1295    1.0000 </r>
       <r>    7.1521    1.0000 </r>
       <r>    7.3942    1.0000 </r>
       <r>    7.5708    1.0000 </r>
       <r>    8.1494    1.0050 </r>
       <r>    8.2500    1.0467 </r>
       <r>    9.6186    0.0000 </r>
       <r>   11.7690    0.0000 </r>
       <r>   14.1352    0.0000 </r>
      </set>
      <set comment="kpoint 38">
       <r>    0.2404    1.0000 </r>
       <r>    1.8428    1.0000 </r>
       <r>    2.2600    1.0000 </r>
       <r>    2.5374    1.0000 </r>
       <r>    2.5963    1.0000 </r>
       <r>    2.8916    1.0000 </r>
       <r>    3.0979    1.0000 </r>
       <r>    3.4791    1.0000 </r>
       <r>    4.0235    1.0000 </r>
       <r>    4.5197    1.0000 </r>
       <r>    4.6463    1.0000 </r>
       <r>    4.8551    1.0000 </r>
       <r>    5.4734    1.0000 </r>
       <r>    6.0292    1.0000 </r>
       <r>    6.6012    1.0000 </r>
       <r>    6.8593    1.0000 </r>
       <r>    6.8715    1.0000 </r>
       <r>    7.2437    1.0000 </r>
       <r>    7.6278    1.0000 </r>
       <r>    8.1407    1.0027 </r>
       <r>    8.1995    1.0242 </r>
       <r>    9.1809    0.0000 </r>
       <r>   12.2189    0.0000 </r>
       <r>   13.8103    0.0000 </r>
      </set>
      <set comment="kpoint 39">
       <r>    0.6344    1.0000 </r>
       <r>    1.6714    1.0000 </r>
       <r>    2.5011    1.0000 </r>
       <r>    2.7628    1.0000 </r>
       <r>    2.7730    1.0000 </r>
       <r>    3.1681    1.0000 </r>
       <r>    3.2172    1.0000 </r>
       <r>    3.3027    1.0000 </r>
       <r>    3.6665    1.0000 </r>
       <r>    4.2635    1.0000 </r>
       <r>    4.4318    1.0000 </r>
       <r>    4.7312    1.0000 </r>
       <r>    5.7162    1.0000 </r>
       <r>    6.1374    1.0000 </r>
       <r>    6.4486    1.0000 </r>
       <r>    6.5568    1.0000 </r>
       <r>    6.6381    1.0000 </r>
       <r>    6.9157    1.0000 </r>
       <r>    7.8857    0.9996 </r>
       <r>    8.1372    1.0019 </r>
       <r>    8.1673    1.0107 </r>
       <r>    8.8033   -0.0009 </r>
       <r>   12.6099    0.0000 </r>
       <r>   13.5209    0.0000 </r>
      </set>
      <set comment="kpoint 40">
       <r>    1.0270    1.0000 </r>
       <r>    1.3866    1.0000 </r>
       <r>    2.7499    1.0000 </r>
       <r>    2.8906    1.0000 </r>
       <r>    2.9389    1.0000 </r>
       <r>    3.1206    1.0000 </r>
       <r>    3.2555    1.0000 </r>
       <r>    3.2858    1.0000 </r>
       <r>    3.5964    1.0000 </r>
       <r>    3.9010    1.0000 </r>
       <r>    4.4676    1.0000 </r>
       <r>    4.5850    1.0000 </r>
       <r>    5.9802    1.0000 </r>
       <r>    6.2613    1.0000 </r>
       <r>    6.3377    1.0000 </r>
       <r>    6.3981    1.0000 </r>
       <r>    6.4674    1.0000 </r>
       <r>    6.6058    1.0000 </r>
       <r>    8.1393    1.0024 </r>
       <r>    8.1485    1.0047 </r>
       <r>    8.1656    1.0101 </r>
       <r>    8.4692    0.4937 </r>
       <r>   12.9460    0.0000 </r>
       <r>   13.2418    0.0000 </r>
      </set>
      <set comment="kpoint 41">
       <r>   -0.1930    1.0000 </r>
       <r>    1.9827    1.0000 </r>
       <r>    2.1004    1.0000 </r>
       <r>    2.1004    1.0000 </r>
       <r>    2.4975    1.0000 </r>
       <r>    2.4975    1.0000 </r>
       <r>    2.9052    1.0000 </r>
       <r>    3.7209    1.0000 </r>
       <r>    4.5971    1.0000 </r>
       <r>    4.5971    1.0000 </r>
       <r>    4.9076    1.0000 </r>
       <r>    5.1544    1.0000 </r>
       <r>    5.1829    1.0000 </r>
       <r>    6.0220    1.0000 </r>
       <r>    6.8629    1.0000 </r>
       <r>    7.2276    1.0000 </r>
[...]
       <r>    9.0162    0.0009 </r>
       <r>    9.4351    0.0000 </r>
       <r>    9.4351    0.0000 </r>
       <r>    9.7580    0.0000 </r>
      </set>
      <set comment="kpoint 217">
       <r>    0.7881    1.0000 </r>
       <r>    0.9719    1.0000 </r>
       <r>    0.9719    1.0000 </r>
       <r>    0.9719    1.0000 </r>
       <r>    4.2297    1.0000 </r>
       <r>    4.2297    1.0000 </r>
       <r>    4.2297    1.0000 </r>
       <r>    4.4457    1.0000 </r>
       <r>    4.4457    1.0000 </r>
       <r>    4.5531    1.0000 </r>
       <r>    4.5531    1.0000 </r>
       <r>    4.5531    1.0000 </r>
       <r>    6.6989    1.0000 </r>
       <r>    6.6989    1.0000 </r>
       <r>    6.6989    1.0000 </r>
       <r>    6.9640    1.0000 </r>
       <r>    8.2958    1.0479 </r>
       <r>    8.2958    1.0479 </r>
       <r>    8.5307    0.1922 </r>
       <r>    8.5307    0.1922 </r>
       <r>    8.5307    0.1922 </r>
       <r>    9.6801    0.0000 </r>
       <r>    9.6801    0.0000 </r>
       <r>    9.6801    0.0000 </r>
      </set>
      <set comment="kpoint 218">
       <r>    0.8096    1.0000 </r>
       <r>    0.8711    1.0000 </r>
       <r>    0.9308    1.0000 </r>
       <r>    0.9308    1.0000 </r>
       <r>    4.2605    1.0000 </r>
       <r>    4.2605    1.0000 </r>
       <r>    4.3254    1.0000 </r>
       <r>    4.3984    1.0000 </r>
       <r>    4.4440    1.0000 </r>
       <r>    4.4800    1.0000 </r>
       <r>    4.5063    1.0000 </r>
       <r>    4.5063    1.0000 </r>
       <r>    6.9358    1.0000 </r>
       <r>    6.9358    1.0000 </r>
       <r>    6.9784    1.0000 </r>
       <r>    7.1283    1.0000 </r>
       <r>    8.4343    0.6744 </r>
       <r>    8.4975    0.3466 </r>
       <r>    8.4975    0.3466 </r>
       <r>    8.5080    0.2946 </r>
       <r>    8.5138    0.2671 </r>
       <r>    9.0356    0.0006 </r>
       <r>    9.6101    0.0000 </r>
       <r>    9.6101    0.0000 </r>
      </set>
      <set comment="kpoint 219">
       <r>    0.8083    1.0000 </r>
       <r>    0.8488    1.0000 </r>
       <r>    0.8488    1.0000 </r>
       <r>    0.8687    1.0000 </r>
       <r>    4.3145    1.0000 </r>
       <r>    4.3365    1.0000 </r>
       <r>    4.3365    1.0000 </r>
       <r>    4.3886    1.0000 </r>
       <r>    4.4154    1.0000 </r>
       <r>    4.4419    1.0000 </r>
       <r>    4.4419    1.0000 </r>
       <r>    4.4508    1.0000 </r>
       <r>    7.2232    1.0000 </r>
       <r>    7.2569    1.0000 </r>
       <r>    7.2569    1.0000 </r>
       <r>    7.3878    1.0000 </r>
       <r>    8.4008    0.8259 </r>
       <r>    8.4776    0.4494 </r>
       <r>    8.4776    0.4494 </r>
       <r>    8.4808    0.4322 </r>
       <r>    8.7000   -0.0413 </r>
       <r>    9.0849    0.0002 </r>
       <r>    9.0849    0.0002 </r>
       <r>    9.2920    0.0000 </r>
      </set>
      <set comment="kpoint 220">
       <r>    0.7851    1.0000 </r>
       <r>    0.8054    1.0000 </r>
       <r>    0.8054    1.0000 </r>
       <r>    0.8054    1.0000 </r>
       <r>    4.3642    1.0000 </r>
       <r>    4.3642    1.0000 </r>
       <r>    4.3642    1.0000 </r>
       <r>    4.3892    1.0000 </r>
       <r>    4.3892    1.0000 </r>
       <r>    4.4011    1.0000 </r>
       <r>    4.4011    1.0000 </r>
       <r>    4.4011    1.0000 </r>
       <r>    7.6385    1.0000 </r>
       <r>    7.6385    1.0000 </r>
       <r>    7.6385    1.0000 </r>
       <r>    7.7949    1.0000 </r>
       <r>    8.4911    0.3790 </r>
       <r>    8.4911    0.3790 </r>
       <r>    8.5182    0.2468 </r>
       <r>    8.5182    0.2468 </r>
       <r>    8.5182    0.2468 </r>
       <r>    8.7942   -0.0030 </r>
       <r>    8.7942   -0.0030 </r>
       <r>    8.7942   -0.0030 </r>
      </set>
     </set>
    </set>
   </array>
  </eigenvalues>
  <separator name="orbital magnetization" >
   <v name="MAGDIPOLOUT">      0.00000000      0.00000000      0.00000000</v>
  </separator>
  <dos>
   <i name="efermi">      8.46798762 </i>
   <total>
    <array>
     <dimension dim="1">gridpoints</dimension>
     <dimension dim="2">spin</dimension>
     <field>energy</field>
     <field>total</field>
     <field>integrated</field>
     <set>
      <set comment="spin 1">
       <r>    -4.0650     0.0000     0.0000 </r>
       <r>    -3.9923     0.0000     0.0000 </r>
       <r>    -3.9196     0.0000     0.0000 </r>
       <r>    -3.8470     0.0000     0.0000 </r>
       <r>    -3.7743     0.0000     0.0000 </r>
       <r>    -3.7016     0.0000     0.0000 </r>
       <r>    -3.6289     0.0000     0.0000 </r>
       <r>    -3.5562     0.0000     0.0000 </r>
       <r>    -3.4835     0.0000     0.0000 </r>
       <r>    -3.4108     0.0000     0.0000 </r>
       <r>    -3.3381     0.0000     0.0000 </r>
       <r>    -3.2654     0.0000     0.0000 </r>
       <r>    -3.1927     0.0000     0.0000 </r>
       <r>    -3.1200     0.0000     0.0000 </r>
       <r>    -3.0473     0.0000     0.0000 </r>
       <r>    -2.9746     0.0000     0.0000 </r>
       <r>    -2.9019     0.0000     0.0000 </r>
       <r>    -2.8292     0.0000     0.0000 </r>
       <r>    -2.7565     0.0000     0.0000 </r>
       <r>    -2.6838     0.0000     0.0000 </r>
       <r>    -2.6112     0.0000     0.0000 </r>
       <r>    -2.5385     0.0001     0.0000 </r>
       <r>    -2.4658     0.0003     0.0000 </r>
       <r>    -2.3931     0.0003     0.0001 </r>
       <r>    -2.3204    -0.0009    -0.0000 </r>
       <r>    -2.2477    -0.0030    -0.0002 </r>
       <r>    -2.1750    -0.0020    -0.0004 </r>
       <r>    -2.1023     0.0095     0.0003 </r>
       <r>    -2.0296     0.0351     0.0029 </r>
       <r>    -1.9569     0.0687     0.0079 </r>
       <r>    -1.8842     0.0999     0.0151 </r>
       <r>    -1.8115     0.1224     0.0240 </r>
       <r>    -1.7388     0.1394     0.0342 </r>
       <r>    -1.6661     0.1580     0.0457 </r>
       <r>    -1.5934     0.1757     0.0584 </r>
       <r>    -1.5207     0.1859     0.0719 </r>
       <r>    -1.4481     0.1962     0.0862 </r>
       <r>    -1.3754     0.2171     0.1020 </r>
       <r>    -1.3027     0.2399     0.1194 </r>
       <r>    -1.2300     0.2480     0.1375 </r>
       <r>    -1.1573     0.2449     0.1553 </r>
       <r>    -1.0846     0.2581     0.1740 </r>
       <r>    -1.0119     0.2956     0.1955 </r>
       <r>    -0.9392     0.3220     0.2189 </r>
       <r>    -0.8665     0.3127     0.2417 </r>
       <r>    -0.7938     0.3014     0.2636 </r>
       <r>    -0.7211     0.3271     0.2873 </r>
       <r>    -0.6484     0.3702     0.3143 </r>
       <r>    -0.5757     0.3925     0.3428 </r>
       <r>    -0.5030     0.3964     0.3716 </r>
       <r>    -0.4303     0.3979     0.4005 </r>
       <r>    -0.3576     0.3992     0.4295 </r>
       <r>    -0.2850     0.4160     0.4598 </r>
       <r>    -0.2123     0.4671     0.4937 </r>
       <r>    -0.1396     0.5223     0.5317 </r>
       <r>    -0.0669     0.5257     0.5699 </r>
       <r>     0.0058     0.4885     0.6054 </r>
       <r>     0.0785     0.4949     0.6414 </r>
       <r>     0.1512     0.5762     0.6833 </r>
       <r>     0.2239     0.6543     0.7309 </r>
       <r>     0.2966     0.6624     0.7790 </r>
       <r>     0.3693     0.6524     0.8264 </r>
       <r>     0.4420     0.6983     0.8772 </r>
       <r>     0.5147     0.7640     0.9327 </r>
       <r>     0.5874     0.8024     0.9911 </r>
       <r>     0.6601     0.9003     1.0565 </r>
       <r>     0.7328     1.1614     1.1409 </r>
       <r>     0.8055     1.5261     1.2519 </r>
       <r>     0.8782     1.8418     1.3858 </r>
       <r>     0.9508     2.0679     1.5361 </r>
       <r>     1.0235     2.2744     1.7014 </r>
       <r>     1.0962     2.4867     1.8822 </r>
       <r>     1.1689     2.7044     2.0788 </r>
       <r>     1.2416     2.9792     2.2954 </r>
       <r>     1.3143     3.3185     2.5366 </r>
       <r>     1.3870     3.6506     2.8020 </r>
       <r>     1.4597     3.9580     3.0897 </r>
       <r>     1.5324     4.2967     3.4020 </r>
       <r>     1.6051     4.6838     3.7425 </r>
       <r>     1.6778     5.0860     4.1122 </r>
       <r>     1.7505     5.4415     4.5078 </r>
       <r>     1.8232     5.6655     4.9197 </r>
       <r>     1.8959     5.7253     5.3359 </r>
       <r>     1.9686     5.6593     5.7472 </r>
       <r>     2.0413     5.5035     6.1473 </r>
       <r>     2.1139     5.3040     6.5329 </r>
       <r>     2.1866     5.1444     6.9069 </r>
       <r>     2.2593     5.0337     7.2728 </r>
       <r>     2.3320     4.9198     7.6304 </r>
       <r>     2.4047     4.8751     7.9848 </r>
       <r>     2.4774     4.9401     8.3439 </r>
       <r>     2.5501     4.8830     8.6989 </r>
       <r>     2.6228     4.5609     9.0304 </r>
       <r>     2.6955     4.1807     9.3343 </r>
       <r>     2.7682     3.8534     9.6145 </r>
       <r>     2.8409     3.4786     9.8673 </r>
       <r>     2.9136     3.2102    10.1007 </r>
       <r>     2.9863     3.4146    10.3489 </r>
       <r>     3.0590     4.1044    10.6473 </r>
       <r>     3.1317     4.7874    10.9953 </r>
       <r>     3.2044     5.0200    11.3602 </r>
       <r>     3.2771     4.9332    11.7188 </r>
       <r>     3.3497     4.9307    12.0773 </r>
       <r>     3.4224     5.0855    12.4470 </r>
       <r>     3.4951     5.2134    12.8259 </r>
       <r>     3.5678     5.2451    13.2072 </r>
       <r>     3.6405     5.1965    13.5850 </r>
       <r>     3.7132     5.1189    13.9571 </r>
       <r>     3.7859     5.1888    14.3343 </r>
       <r>     3.8586     5.4701    14.7319 </r>
       <r>     3.9313     5.7124    15.1472 </r>
       <r>     4.0040     5.6861    15.5605 </r>
       <r>     4.0767     5.5119    15.9612 </r>
       <r>     4.1494     5.5197    16.3625 </r>
       <r>     4.2221     5.8623    16.7886 </r>
       <r>     4.2948     6.3191    17.2480 </r>
       <r>     4.3675     6.5773    17.7261 </r>
       <r>     4.4402     6.6297    18.2080 </r>
       <r>     4.5128     6.7216    18.6967 </r>
       <r>     4.5855     7.0206    19.2070 </r>
       <r>     4.6582     7.5488    19.7558 </r>
       <r>     4.7309     8.2932    20.3586 </r>
       <r>     4.8036     9.0676    21.0178 </r>
       <r>     4.8763     9.3681    21.6988 </r>
       <r>     4.9490     8.7465    22.3346 </r>
       <r>     5.0217     7.3995    22.8725 </r>
       <r>     5.0944     6.1116    23.3168 </r>
       <r>     5.1671     5.4592    23.7136 </r>
       <r>     5.2398     5.2674    24.0965 </r>
       <r>     5.3125     5.0590    24.4643 </r>
       <r>     5.3852     4.7404    24.8089 </r>
       <r>     5.4579     4.4812    25.1347 </r>
       <r>     5.5306     4.3016    25.4474 </r>
       <r>     5.6033     4.1971    25.7525 </r>
       <r>     5.6759     4.2336    26.0602 </r>
       <r>     5.7486     4.2847    26.3717 </r>
       <r>     5.8213     4.1996    26.6770 </r>
       <r>     5.8940     4.1782    26.9807 </r>
       <r>     5.9667     4.4558    27.3046 </r>
       <r>     6.0394     4.8610    27.6580 </r>
       <r>     6.1121     5.0845    28.0276 </r>
       <r>     6.1848     5.1679    28.4033 </r>
       <r>     6.2575     5.4120    28.7967 </r>
       <r>     6.3302     5.8557    29.2224 </r>
       <r>     6.4029     6.1641    29.6705 </r>
       <r>     6.4756     6.0826    30.1126 </r>
       <r>     6.5483     5.6705    30.5248 </r>
       <r>     6.6210     5.1047    30.8959 </r>
       <r>     6.6937     4.6208    31.2318 </r>
       <r>     6.7664     4.4759    31.5572 </r>
       <r>     6.8391     4.6380    31.8943 </r>
       <r>     6.9117     4.7609    32.2404 </r>
       <r>     6.9844     4.6128    32.5758 </r>
       <r>     7.0571     4.3170    32.8896 </r>
       <r>     7.1298     4.1305    33.1898 </r>
       <r>     7.2025     4.1297    33.4900 </r>
       <r>     7.2752     4.2031    33.7956 </r>
       <r>     7.3479     4.2114    34.1017 </r>
       <r>     7.4206     4.0910    34.3991 </r>
       <r>     7.4933     3.9730    34.6879 </r>
       <r>     7.5660     4.0633    34.9833 </r>
       <r>     7.6387     4.2787    35.2943 </r>
       <r>     7.7114     4.3677    35.6118 </r>
       <r>     7.7841     4.3570    35.9286 </r>
       <r>     7.8568     4.4077    36.2490 </r>
       <r>     7.9295     4.4802    36.5747 </r>
       <r>     8.0022     4.5960    36.9088 </r>
       <r>     8.0748     4.9944    37.2718 </r>
       <r>     8.1475     5.6870    37.6852 </r>
       <r>     8.2202     6.3580    38.1474 </r>
       <r>     8.2929     6.9002    38.6490 </r>
       <r>     8.3656     7.4815    39.1929 </r>
       <r>     8.4383     7.9063    39.7676 </r>
       <r>     8.5110     7.6246    40.3219 </r>
       <r>     8.5837     6.6266    40.8036 </r>
       <r>     8.6564     5.5403    41.2063 </r>
       <r>     8.7291     4.7275    41.5500 </r>
       <r>     8.8018     4.0476    41.8442 </r>
       <r>     8.8745     3.3436    42.0873 </r>
       <r>     8.9472     2.5955    42.2760 </r>
       <r>     9.0199     1.9171    42.4153 </r>
       <r>     9.0926     1.5300    42.5266 </r>
       <r>     9.1653     1.4275    42.6303 </r>
       <r>     9.2380     1.2884    42.7240 </r>
       <r>     9.3106     0.9488    42.7930 </r>
       <r>     9.3833     0.6361    42.8392 </r>
       <r>     9.4560     0.6346    42.8853 </r>
       <r>     9.5287     0.9732    42.9561 </r>
       <r>     9.6014     1.4015    43.0580 </r>
       <r>     9.6741     1.5526    43.1708 </r>
       <r>     9.7468     1.2800    43.2639 </r>
       <r>     9.8195     0.8315    43.3243 </r>
       <r>     9.8922     0.5920    43.3674 </r>
       <r>     9.9649     0.7538    43.4222 </r>
       <r>    10.0376     1.1782    43.5078 </r>
       <r>    10.1103     1.4633    43.6142 </r>
       <r>    10.1830     1.3229    43.7103 </r>
       <r>    10.2557     0.9391    43.7786 </r>
       <r>    10.3284     0.7437    43.8327 </r>
       <r>    10.4011     0.9062    43.8986 </r>
       <r>    10.4737     1.1912    43.9851 </r>
       <r>    10.5464     1.2735    44.0777 </r>
       <r>    10.6191     1.1129    44.1586 </r>
       <r>    10.6918     0.9564    44.2282 </r>
       <r>    10.7645     0.9965    44.3006 </r>
       <r>    10.8372     1.1559    44.3846 </r>
       <r>    10.9099     1.2086    44.4725 </r>
       <r>    10.9826     1.0494    44.5488 </r>
       <r>    11.0553     0.8335    44.6093 </r>
       <r>    11.1280     0.8215    44.6691 </r>
       <r>    11.2007     1.0598    44.7461 </r>
       <r>    11.2734     1.2829    44.8394 </r>
       <r>    11.3461     1.2360    44.9292 </r>
       <r>    11.4188     1.0241    45.0037 </r>
       <r>    11.4915     0.9433    45.0722 </r>
       <r>    11.5642     1.0446    45.1482 </r>
       <r>    11.6368     1.1130    45.2291 </r>
       <r>    11.7095     1.0232    45.3035 </r>
       <r>    11.7822     0.8773    45.3672 </r>
       <r>    11.8549     0.8215    45.4270 </r>
       <r>    11.9276     0.9092    45.4930 </r>
       <r>    12.0003     1.0879    45.5721 </r>
       <r>    12.0730     1.2136    45.6604 </r>
       <r>    12.1457     1.1738    45.7457 </r>
       <r>    12.2184     1.0177    45.8197 </r>
       <r>    12.2911     0.8771    45.8834 </r>
       <r>    12.3638     0.8148    45.9427 </r>
       <r>    12.4365     0.8363    46.0035 </r>
       <r>    12.5092     0.9411    46.0719 </r>
       <r>    12.5819     1.0629    46.1491 </r>
       <r>    12.6546     1.0657    46.2266 </r>
       <r>    12.7273     0.9115    46.2929 </r>
       <r>    12.8000     0.7557    46.3478 </r>
       <r>    12.8726     0.7692    46.4037 </r>
       <r>    12.9453     0.9250    46.4709 </r>
       <r>    13.0180     1.0381    46.5464 </r>
       <r>    13.0907     0.9922    46.6185 </r>
       <r>    13.1634     0.8694    46.6817 </r>
       <r>    13.2361     0.8070    46.7404 </r>
       <r>    13.3088     0.8047    46.7989 </r>
       <r>    13.3815     0.7901    46.8563 </r>
       <r>    13.4542     0.7654    46.9120 </r>
       <r>    13.5269     0.7728    46.9682 </r>
       <r>    13.5996     0.8037    47.0266 </r>
       <r>    13.6723     0.8156    47.0859 </r>
       <r>    13.7450     0.7978    47.1439 </r>
       <r>    13.8177     0.7779    47.2004 </r>
       <r>    13.8904     0.7707    47.2564 </r>
       <r>    13.9631     0.7539    47.3112 </r>
       <r>    14.0357     0.7158    47.3633 </r>
       <r>    14.1084     0.6905    47.4135 </r>
       <r>    14.1811     0.7033    47.4646 </r>
       <r>    14.2538     0.7230    47.5171 </r>
       <r>    14.3265     0.7132    47.5690 </r>
       <r>    14.3992     0.6837    47.6187 </r>
       <r>    14.4719     0.6582    47.6665 </r>
       <r>    14.5446     0.6298    47.7123 </r>
       <r>    14.6173     0.5823    47.7547 </r>
       <r>    14.6900     0.5194    47.7924 </r>
       <r>    14.7627     0.4479    47.8250 </r>
       <r>    14.8354     0.3684    47.8517 </r>
       <r>    14.9081     0.2934    47.8731 </r>
       <r>    14.9808     0.2444    47.8908 </r>
       <r>    15.0535     0.2260    47.9073 </r>
       <r>    15.1262     0.2185    47.9232 </r>
       <r>    15.1989     0.2042    47.9380 </r>
       <r>    15.2715     0.1835    47.9513 </r>
       <r>    15.3442     0.1545    47.9626 </r>
       <r>    15.4169     0.1093    47.9705 </r>
       <r>    15.4896     0.0625    47.9751 </r>
       <r>    15.5623     0.0473    47.9785 </r>
       <r>    15.6350     0.0700    47.9836 </r>
       <r>    15.7077     0.0945    47.9905 </r>
       <r>    15.7804     0.0852    47.9967 </r>
       <r>    15.8531     0.0463    48.0000 </r>
       <r>    15.9258     0.0094    48.0007 </r>
       <r>    15.9985    -0.0055    48.0003 </r>
       <r>    16.0712    -0.0045    48.0000 </r>
       <r>    16.1439    -0.0008    47.9999 </r>
       <r>    16.2166     0.0005    48.0000 </r>
       <r>    16.2893     0.0004    48.0000 </r>
       <r>    16.3620     0.0001    48.0000 </r>
       <r>    16.4346     0.0000    48.0000 </r>
       <r>    16.5073     0.0000    48.0000 </r>
       <r>    16.5800     0.0000    48.0000 </r>
       <r>    16.6527     0.0000    48.0000 </r>
       <r>    16.7254     0.0000    48.0000 </r>
       <r>    16.7981     0.0000    48.0000 </r>
       <r>    16.8708     0.0000    48.0000 </r>
       <r>    16.9435     0.0000    48.0000 </r>
       <r>    17.0162     0.0000    48.0000 </r>
       <r>    17.0889     0.0000    48.0000 </r>
       <r>    17.1616     0.0000    48.0000 </r>
       <r>    17.2343     0.0000    48.0000 </r>
       <r>    17.3070     0.0000    48.0000 </r>
       <r>    17.3797     0.0000    48.0000 </r>
       <r>    17.4524     0.0000    48.0000 </r>
       <r>    17.5251     0.0000    48.0000 </r>
       <r>    17.5977     0.0000    48.0000 </r>
       <r>    17.6704     0.0000    48.0000 </r>
       <r>    17.7431     0.0000    48.0000 </r>
      </set>
     </set>
    </array>
   </total>
  </dos>
 </calculation>
 <structure name="finalpos" >
  <crystal>
   <varray name="basis" >
    <v>       3.88000000       0.00000000       0.00000000 </v>
    <v>       0.00000000       3.88000000       0.00000000 </v>
    <v>       0.00000000       0.00000000       3.88000000 </v>
   </varray>
   <i name="volume">     58.41107200 </i>
   <varray name="rec_basis" >
    <v>       0.25773196       0.00000000       0.00000000 </v>
    <v>       0.00000000       0.25773196       0.00000000 </v>
    <v>       0.00000000       0.00000000       0.25773196 </v>
   </varray>
  </crystal>
  <varray name="positions" >
   <v>       0.00000000       0.00000000       0.00000000 </v>
   <v>       0.00000000       0.50000000       0.50000000 </v>
   <v>       0.50000000       0.00000000       0.50000000 </v>
   <v>       0.50000000       0.50000000       0.00000000 </v>
  </varray>
 </structure>
</modeling>
