This job started on
Tue Jan 22 12:57:33 CET 2019
 running on   16 total cores
 distrk:  each k-point on   16 cores,    1 groups
 distr:  one band on    8 cores,    2 groups
 using from now: INCAR     
 vasp.5.4.4.18Apr17-6-g9f103f2a35 (build Apr 17 2018 18:25:23) complex          
  
 POSCAR found :  1 types and       4 ions

 ----------------------------------------------------------------------------- 
|                                                                             |
|  ADVICE TO THIS USER RUNNING 'VASP/VAMP'   (HEAR YOUR MASTER'S VOICE ...):  |
|                                                                             |
|      You enforced a specific xc-type in the INCAR file,                     |
|      a different type was found on the POTCAR file                          |
|          I HOPE YOU KNOW, WHAT YOU ARE  DOING                               |
|                                                                             |
 ----------------------------------------------------------------------------- 

 LDA part: xc-table for Ceperly-Alder, standard interpolation
 POSCAR found :  1 types and       4 ions
 POSCAR, INCAR and KPOINTS ok, starting setup
 FFT: planning ...
 WAVECAR not read
 entering main loop
       N       E                     dE             d eps       ncg     rms          rms(c)
DAV:   1     0.403846590764E+03    0.40385E+03   -0.16829E+04  5760   0.144E+03
DAV:   2     0.707909104311E+01   -0.39677E+03   -0.38362E+03  5792   0.493E+02
DAV:   3    -0.235073947997E+02   -0.30586E+02   -0.29513E+02  8128   0.113E+02
DAV:   4    -0.245929656304E+02   -0.10856E+01   -0.10762E+01  6144   0.309E+01
DAV:   5    -0.246346111868E+02   -0.41646E-01   -0.41570E-01  7616   0.367E+00    0.751E+00
DAV:   6    -0.229803518613E+02    0.16543E+01   -0.54834E+00  7576   0.243E+01    0.151E+00
DAV:   7    -0.229349635105E+02    0.45388E-01   -0.20968E-01  8656   0.386E+00    0.665E-01
DAV:   8    -0.229287222100E+02    0.62413E-02   -0.11213E-02  5992   0.129E+00    0.818E-02
DAV:   9    -0.229285508051E+02    0.17140E-03   -0.12545E-03  8512   0.354E-01    0.263E-02
DAV:  10    -0.229285597583E+02   -0.89532E-05   -0.44034E-05  6976   0.471E-02    0.302E-03
DAV:  11    -0.229285609691E+02   -0.12108E-05   -0.10918E-06  4232   0.970E-03    0.626E-04
DAV:  12    -0.229285606335E+02    0.33563E-06   -0.27417E-07  3056   0.659E-03
   1 F= -.22928561E+02 E0= -.22925791E+02  d E =-.229286E+02
 curvature:   0.00 expect dE= 0.000E+00 dE for cont linesearch  0.000E+00
 trial: gam= 0.00000 g(F)=  0.819E-60 g(S)=  0.000E+00 ort = 0.000E+00 (trialstep = 0.100E+01)
 search vector abs. value=  0.100E-09
 reached required accuracy - stopping structural energy minimisation
 writing wavefunctions
This job finished on
Tue Jan 22 12:57:57 CET 2019
