This job started on
Tue Jan 22 12:57:33 CET 2019
 running on   16 total cores
 distrk:  each k-point on   16 cores,    1 groups
 distr:  one band on    8 cores,    2 groups
 using from now: INCAR     
 vasp.5.4.4.18Apr17-6-g9f103f2a35 (build Apr 17 2018 18:25:23) complex          
  
 POSCAR found :  1 types and       4 ions

 ----------------------------------------------------------------------------- 
|                                                                             |
|  ADVICE TO THIS USER RUNNING 'VASP/VAMP'   (HEAR YOUR MASTER'S VOICE ...):  |
|                                                                             |
|      You enforced a specific xc-type in the INCAR file,                     |
|      a different type was found on the POTCAR file                          |
|          I HOPE YOU KNOW, WHAT YOU ARE  DOING                               |
|                                                                             |
 ----------------------------------------------------------------------------- 

 LDA part: xc-table for Ceperly-Alder, standard interpolation
 POSCAR found :  1 types and       4 ions
 POSCAR, INCAR and KPOINTS ok, starting setup
 FFT: planning ...
 WAVECAR not read
 entering main loop
       N       E                     dE             d eps       ncg     rms          rms(c)
DAV:   1     0.411902776136E+03    0.41190E+03   -0.16938E+04  5760   0.146E+03
DAV:   2     0.680407346374E+01   -0.40510E+03   -0.39176E+03  5800   0.497E+02
DAV:   3    -0.240827664023E+02   -0.30887E+02   -0.29761E+02  8224   0.114E+02
DAV:   4    -0.251444670333E+02   -0.10617E+01   -0.10544E+01  6176   0.308E+01
DAV:   5    -0.251813581975E+02   -0.36891E-01   -0.36862E-01  7472   0.353E+00    0.759E+00
DAV:   6    -0.235238056933E+02    0.16576E+01   -0.52023E+00  7480   0.240E+01    0.163E+00
DAV:   7    -0.234635063890E+02    0.60299E-01   -0.25616E-01  8848   0.446E+00    0.648E-01
DAV:   8    -0.234557174922E+02    0.77889E-02   -0.13091E-02  5928   0.142E+00    0.954E-02
DAV:   9    -0.234554645217E+02    0.25297E-03   -0.16556E-03  8168   0.427E-01    0.265E-02
DAV:  10    -0.234554748377E+02   -0.10316E-04   -0.47419E-05  6752   0.473E-02    0.406E-03
DAV:  11    -0.234554759995E+02   -0.11618E-05   -0.22829E-06  4880   0.154E-02    0.516E-04
DAV:  12    -0.234554756588E+02    0.34068E-06   -0.34528E-07  3088   0.654E-03
   1 F= -.23455476E+02 E0= -.23453142E+02  d E =-.234555E+02
 curvature:   0.00 expect dE= 0.000E+00 dE for cont linesearch  0.000E+00
 trial: gam= 0.00000 g(F)=  0.173E-59 g(S)=  0.000E+00 ort = 0.000E+00 (trialstep = 0.100E+01)
 search vector abs. value=  0.100E-09
 reached required accuracy - stopping structural energy minimisation
 writing wavefunctions
This job finished on
Tue Jan 22 12:57:55 CET 2019
