<?xml version="1.0" encoding="ISO-8859-1"?>
<modeling>
 <generator>
  <i name="program" type="string">vasp </i>
  <i name="version" type="string">5.4.4.18Apr17-6-g9f103f2a35  </i>
  <i name="subversion" type="string">(build Apr 17 2018 18:25:23) complex            parallel </i>
  <i name="platform" type="string">LinuxIFC </i>
  <i name="date" type="string">2019 01 22 </i>
  <i name="time" type="string">12:57:34 </i>
 </generator>
 <incar>
  <i type="string" name="SYSTEM"> Pt bulk calculation</i>
  <i type="int" name="ISTART">     0</i>
  <i type="string" name="PREC">normal</i>
  <i type="string" name="ALGO"> NORMAL</i>
  <i type="int" name="ICHARG">     2</i>
  <i type="int" name="INIWAV">     1</i>
  <i type="int" name="NELMIN">    10</i>
  <i type="int" name="IBRION">     2</i>
  <i name="EDIFF">      0.00000100</i>
  <i name="EDIFFG">     -0.02000000</i>
  <i type="int" name="NSW">    10</i>
  <i name="ENCUT">    450.00000000</i>
  <i name="POTIM">      0.20000000</i>
  <i type="int" name="ISMEAR">     2</i>
  <i name="SIGMA">      0.20000000</i>
  <v type="int" name="KPOINT_BSE">    -1     0     0     0</v>
  <i type="string" name="GGA"> 91</i>
 </incar>
 <structure name="primitive_cell" >
  <crystal>
   <varray name="basis" >
    <v>       2.10000000       2.10000000      -0.00000000 </v>
    <v>       2.10000000       0.00000000      -2.10000000 </v>
    <v>       0.00000000       2.10000000      -2.10000000 </v>
   </varray>
   <i name="volume">     18.52200000 </i>
   <varray name="rec_basis" >
    <v>       0.23809524       0.23809524       0.23809524 </v>
    <v>       0.23809524      -0.23809524      -0.23809524 </v>
    <v>      -0.23809524       0.23809524      -0.23809524 </v>
   </varray>
  </crystal>
  <varray name="positions" >
   <v>       0.00000000       0.00000000       0.00000000 </v>
  </varray>
 </structure>
 <varray name="primitive_index" >
  <v type="int" >        1 </v>
 </varray>
 <kpoints>
  <generation param="Monkhorst-Pack">
   <v type="int" name="divisions">      16       16       16 </v>
   <v name="usershift">      0.00000000       0.00000000       0.00000000 </v>
   <v name="genvec1">      0.06250000       0.00000000       0.00000000 </v>
   <v name="genvec2">      0.00000000       0.06250000       0.00000000 </v>
   <v name="genvec3">      0.00000000       0.00000000       0.06250000 </v>
   <v name="shift">      0.50000000       0.50000000       0.50000000 </v>
  </generation>
  <varray name="kpointlist" >
   <v>       0.03125000       0.03125000       0.03125000 </v>
   <v>       0.09375000       0.03125000       0.03125000 </v>
   <v>       0.15625000       0.03125000       0.03125000 </v>
   <v>       0.21875000       0.03125000       0.03125000 </v>
   <v>       0.28125000       0.03125000       0.03125000 </v>
   <v>       0.34375000       0.03125000       0.03125000 </v>
   <v>       0.40625000       0.03125000       0.03125000 </v>
   <v>       0.46875000       0.03125000       0.03125000 </v>
   <v>       0.09375000       0.09375000       0.03125000 </v>
   <v>       0.15625000       0.09375000       0.03125000 </v>
   <v>       0.21875000       0.09375000       0.03125000 </v>
   <v>       0.28125000       0.09375000       0.03125000 </v>
   <v>       0.34375000       0.09375000       0.03125000 </v>
   <v>       0.40625000       0.09375000       0.03125000 </v>
   <v>       0.46875000       0.09375000       0.03125000 </v>
   <v>       0.15625000       0.15625000       0.03125000 </v>
   <v>       0.21875000       0.15625000       0.03125000 </v>
   <v>       0.28125000       0.15625000       0.03125000 </v>
   <v>       0.34375000       0.15625000       0.03125000 </v>
   <v>       0.40625000       0.15625000       0.03125000 </v>
   <v>       0.46875000       0.15625000       0.03125000 </v>
   <v>       0.21875000       0.21875000       0.03125000 </v>
   <v>       0.28125000       0.21875000       0.03125000 </v>
   <v>       0.34375000       0.21875000       0.03125000 </v>
   <v>       0.40625000       0.21875000       0.03125000 </v>
   <v>       0.46875000       0.21875000       0.03125000 </v>
   <v>       0.28125000       0.28125000       0.03125000 </v>
   <v>       0.34375000       0.28125000       0.03125000 </v>
   <v>       0.40625000       0.28125000       0.03125000 </v>
   <v>       0.46875000       0.28125000       0.03125000 </v>
   <v>       0.34375000       0.34375000       0.03125000 </v>
   <v>       0.40625000       0.34375000       0.03125000 </v>
   <v>       0.46875000       0.34375000       0.03125000 </v>
   <v>       0.40625000       0.40625000       0.03125000 </v>
   <v>       0.46875000       0.40625000       0.03125000 </v>
   <v>       0.46875000       0.46875000       0.03125000 </v>
   <v>       0.09375000       0.09375000       0.09375000 </v>
   <v>       0.15625000       0.09375000       0.09375000 </v>
   <v>       0.21875000       0.09375000       0.09375000 </v>
   <v>       0.28125000       0.09375000       0.09375000 </v>
   <v>       0.34375000       0.09375000       0.09375000 </v>
   <v>       0.40625000       0.09375000       0.09375000 </v>
   <v>       0.46875000       0.09375000       0.09375000 </v>
   <v>       0.15625000       0.15625000       0.09375000 </v>
   <v>       0.21875000       0.15625000       0.09375000 </v>
   <v>       0.28125000       0.15625000       0.09375000 </v>
   <v>       0.34375000       0.15625000       0.09375000 </v>
   <v>       0.40625000       0.15625000       0.09375000 </v>
   <v>       0.46875000       0.15625000       0.09375000 </v>
   <v>       0.21875000       0.21875000       0.09375000 </v>
   <v>       0.28125000       0.21875000       0.09375000 </v>
   <v>       0.34375000       0.21875000       0.09375000 </v>
   <v>       0.40625000       0.21875000       0.09375000 </v>
   <v>       0.46875000       0.21875000       0.09375000 </v>
   <v>       0.28125000       0.28125000       0.09375000 </v>
   <v>       0.34375000       0.28125000       0.09375000 </v>
   <v>       0.40625000       0.28125000       0.09375000 </v>
   <v>       0.46875000       0.28125000       0.09375000 </v>
   <v>       0.34375000       0.34375000       0.09375000 </v>
   <v>       0.40625000       0.34375000       0.09375000 </v>
   <v>       0.46875000       0.34375000       0.09375000 </v>
   <v>       0.40625000       0.40625000       0.09375000 </v>
   <v>       0.46875000       0.40625000       0.09375000 </v>
   <v>       0.46875000       0.46875000       0.09375000 </v>
   <v>       0.15625000       0.15625000       0.15625000 </v>
   <v>       0.21875000       0.15625000       0.15625000 </v>
   <v>       0.28125000       0.15625000       0.15625000 </v>
   <v>       0.34375000       0.15625000       0.15625000 </v>
   <v>       0.40625000       0.15625000       0.15625000 </v>
   <v>       0.46875000       0.15625000       0.15625000 </v>
   <v>       0.21875000       0.21875000       0.15625000 </v>
   <v>       0.28125000       0.21875000       0.15625000 </v>
   <v>       0.34375000       0.21875000       0.15625000 </v>
   <v>       0.40625000       0.21875000       0.15625000 </v>
   <v>       0.46875000       0.21875000       0.15625000 </v>
   <v>       0.28125000       0.28125000       0.15625000 </v>
   <v>       0.34375000       0.28125000       0.15625000 </v>
   <v>       0.40625000       0.28125000       0.15625000 </v>
   <v>       0.46875000       0.28125000       0.15625000 </v>
   <v>       0.34375000       0.34375000       0.15625000 </v>
   <v>       0.40625000       0.34375000       0.15625000 </v>
   <v>       0.46875000       0.34375000       0.15625000 </v>
   <v>       0.40625000       0.40625000       0.15625000 </v>
   <v>       0.46875000       0.40625000       0.15625000 </v>
   <v>       0.46875000       0.46875000       0.15625000 </v>
   <v>       0.21875000       0.21875000       0.21875000 </v>
   <v>       0.28125000       0.21875000       0.21875000 </v>
   <v>       0.34375000       0.21875000       0.21875000 </v>
   <v>       0.40625000       0.21875000       0.21875000 </v>
   <v>       0.46875000       0.21875000       0.21875000 </v>
   <v>       0.28125000       0.28125000       0.21875000 </v>
   <v>       0.34375000       0.28125000       0.21875000 </v>
   <v>       0.40625000       0.28125000       0.21875000 </v>
   <v>       0.46875000       0.28125000       0.21875000 </v>
   <v>       0.34375000       0.34375000       0.21875000 </v>
   <v>       0.40625000       0.34375000       0.21875000 </v>
   <v>       0.46875000       0.34375000       0.21875000 </v>
   <v>       0.40625000       0.40625000       0.21875000 </v>
   <v>       0.46875000       0.40625000       0.21875000 </v>
   <v>       0.46875000       0.46875000       0.21875000 </v>
   <v>       0.28125000       0.28125000       0.28125000 </v>
   <v>       0.34375000       0.28125000       0.28125000 </v>
   <v>       0.40625000       0.28125000       0.28125000 </v>
   <v>       0.46875000       0.28125000       0.28125000 </v>
   <v>       0.34375000       0.34375000       0.28125000 </v>
   <v>       0.40625000       0.34375000       0.28125000 </v>
   <v>       0.46875000       0.34375000       0.28125000 </v>
   <v>       0.40625000       0.40625000       0.28125000 </v>
   <v>       0.46875000       0.40625000       0.28125000 </v>
   <v>       0.46875000       0.46875000       0.28125000 </v>
   <v>       0.34375000       0.34375000       0.34375000 </v>
   <v>       0.40625000       0.34375000       0.34375000 </v>
   <v>       0.46875000       0.34375000       0.34375000 </v>
   <v>       0.40625000       0.40625000       0.34375000 </v>
   <v>       0.46875000       0.40625000       0.34375000 </v>
   <v>       0.46875000       0.46875000       0.34375000 </v>
   <v>       0.40625000       0.40625000       0.40625000 </v>
   <v>       0.46875000       0.40625000       0.40625000 </v>
   <v>       0.46875000       0.46875000       0.40625000 </v>
   <v>       0.46875000       0.46875000       0.46875000 </v>
  </varray>
  <varray name="weights" >
   <v>       0.00195312 </v>
   <v>       0.00585938 </v>
   <v>       0.00585938 </v>
   <v>       0.00585938 </v>
   <v>       0.00585938 </v>
   <v>       0.00585938 </v>
   <v>       0.00585938 </v>
   <v>       0.00585938 </v>
   <v>       0.00585938 </v>
   <v>       0.01171875 </v>
   <v>       0.01171875 </v>
   <v>       0.01171875 </v>
   <v>       0.01171875 </v>
   <v>       0.01171875 </v>
   <v>       0.01171875 </v>
   <v>       0.00585938 </v>
   <v>       0.01171875 </v>
   <v>       0.01171875 </v>
   <v>       0.01171875 </v>
   <v>       0.01171875 </v>
   <v>       0.01171875 </v>
   <v>       0.00585938 </v>
   <v>       0.01171875 </v>
   <v>       0.01171875 </v>
   <v>       0.01171875 </v>
   <v>       0.01171875 </v>
   <v>       0.00585938 </v>
   <v>       0.01171875 </v>
   <v>       0.01171875 </v>
   <v>       0.01171875 </v>
   <v>       0.00585938 </v>
   <v>       0.01171875 </v>
   <v>       0.01171875 </v>
   <v>       0.00585938 </v>
   <v>       0.01171875 </v>
   <v>       0.00585938 </v>
   <v>       0.00195312 </v>
   <v>       0.00585938 </v>
   <v>       0.00585938 </v>
   <v>       0.00585938 </v>
   <v>       0.00585938 </v>
   <v>       0.00585938 </v>
   <v>       0.00585938 </v>
   <v>       0.00585938 </v>
   <v>       0.01171875 </v>
   <v>       0.01171875 </v>
   <v>       0.01171875 </v>
   <v>       0.01171875 </v>
   <v>       0.01171875 </v>
   <v>       0.00585938 </v>
   <v>       0.01171875 </v>
   <v>       0.01171875 </v>
   <v>       0.01171875 </v>
   <v>       0.01171875 </v>
   <v>       0.00585938 </v>
   <v>       0.01171875 </v>
   <v>       0.01171875 </v>
   <v>       0.01171875 </v>
   <v>       0.00585938 </v>
   <v>       0.01171875 </v>
   <v>       0.01171875 </v>
   <v>       0.00585938 </v>
   <v>       0.01171875 </v>
   <v>       0.00585938 </v>
   <v>       0.00195312 </v>
   <v>       0.00585938 </v>
   <v>       0.00585938 </v>
   <v>       0.00585938 </v>
   <v>       0.00585938 </v>
   <v>       0.00585938 </v>
   <v>       0.00585938 </v>
   <v>       0.01171875 </v>
   <v>       0.01171875 </v>
   <v>       0.01171875 </v>
   <v>       0.01171875 </v>
   <v>       0.00585938 </v>
   <v>       0.01171875 </v>
   <v>       0.01171875 </v>
   <v>       0.01171875 </v>
   <v>       0.00585938 </v>
   <v>       0.01171875 </v>
   <v>       0.01171875 </v>
   <v>       0.00585938 </v>
   <v>       0.01171875 </v>
   <v>       0.00585938 </v>
   <v>       0.00195312 </v>
   <v>       0.00585938 </v>
   <v>       0.00585938 </v>
   <v>       0.00585938 </v>
   <v>       0.00585938 </v>
   <v>       0.00585938 </v>
   <v>       0.01171875 </v>
   <v>       0.01171875 </v>
   <v>       0.01171875 </v>
   <v>       0.00585938 </v>
   <v>       0.01171875 </v>
   <v>       0.01171875 </v>
   <v>       0.00585938 </v>
   <v>       0.01171875 </v>
   <v>       0.00585938 </v>
   <v>       0.00195312 </v>
   <v>       0.00585938 </v>
   <v>       0.00585938 </v>
   <v>       0.00585938 </v>
   <v>       0.00585938 </v>
   <v>       0.01171875 </v>
   <v>       0.01171875 </v>
   <v>       0.00585938 </v>
   <v>       0.01171875 </v>
   <v>       0.00585938 </v>
   <v>       0.00195312 </v>
   <v>       0.00585938 </v>
   <v>       0.00585938 </v>
   <v>       0.00585938 </v>
   <v>       0.01171875 </v>
   <v>       0.00585938 </v>
   <v>       0.00195312 </v>
   <v>       0.00585938 </v>
   <v>       0.00585938 </v>
   <v>       0.00195312 </v>
  </varray>
 </kpoints>
 <parameters>
  <separator name="general" >
   <i type="string" name="SYSTEM">Pt bulk calculation</i>
   <i type="logical" name="LCOMPAT"> F  </i>
  </separator>
  <separator name="electronic" >
   <i type="string" name="PREC">normal</i>
   <i name="ENMAX">    450.00000000</i>
   <i name="ENAUG">    358.96600000</i>
   <i name="EDIFF">      0.00000100</i>
   <i type="int" name="IALGO">    38</i>
   <i type="int" name="IWAVPR">    11</i>
   <i type="int" name="NBANDS">    24</i>
   <i name="NELECT">     40.00000000</i>
   <i type="int" name="TURBO">     0</i>
   <i type="int" name="IRESTART">     0</i>
   <i type="int" name="NREBOOT">     0</i>
   <i type="int" name="NMIN">     0</i>
   <i name="EREF">      0.00000000</i>
   <separator name="electronic smearing" >
    <i type="int" name="ISMEAR">     2</i>
    <i name="SIGMA">      0.20000000</i>
    <i name="KSPACING">      0.50000000</i>
    <i type="logical" name="KGAMMA"> T  </i>
   </separator>
   <separator name="electronic projectors" >
    <i type="logical" name="LREAL"> F  </i>
    <v name="ROPT">      0.00000000</v>
    <i type="int" name="LMAXPAW">  -100</i>
    <i type="int" name="LMAXMIX">     2</i>
    <i type="logical" name="NLSPLINE"> F  </i>
   </separator>
   <separator name="electronic startup" >
    <i type="int" name="ISTART">     0</i>
    <i type="int" name="ICHARG">     2</i>
    <i type="int" name="INIWAV">     1</i>
   </separator>
   <separator name="electronic spin" >
    <i type="int" name="ISPIN">     1</i>
    <i type="logical" name="LNONCOLLINEAR"> F  </i>
    <v name="MAGMOM">      1.00000000      1.00000000      1.00000000      1.00000000</v>
    <i name="NUPDOWN">     -1.00000000</i>
    <i type="logical" name="LSORBIT"> F  </i>
    <v name="SAXIS">      0.00000000      0.00000000      1.00000000</v>
    <i type="logical" name="LSPIRAL"> F  </i>
    <v name="QSPIRAL">      0.00000000      0.00000000      0.00000000</v>
    <i type="logical" name="LZEROZ"> F  </i>
   </separator>
   <separator name="electronic exchange-correlation" >
    <i type="logical" name="LASPH"> F  </i>
    <i type="logical" name="LMETAGGA"> F  </i>
   </separator>
   <separator name="electronic convergence" >
    <i type="int" name="NELM">    60</i>
    <i type="int" name="NELMDL">    -5</i>
    <i type="int" name="NELMIN">    10</i>
    <i name="ENINI">    450.00000000</i>
    <separator name="electronic convergence detail" >
     <i type="logical" name="LDIAG"> T  </i>
     <i type="logical" name="LSUBROT"> F  </i>
     <i name="WEIMIN">      0.00100000</i>
     <i name="EBREAK">      0.00000001</i>
     <i name="DEPER">      0.30000000</i>
     <i type="int" name="NRMM">     4</i>
     <i name="TIME">      0.40000000</i>
    </separator>
   </separator>
   <separator name="electronic mixer" >
    <i name="AMIX">      0.40000000</i>
    <i name="BMIX">      1.00000000</i>
    <i name="AMIN">      0.10000000</i>
    <i name="AMIX_MAG">      1.60000000</i>
    <i name="BMIX_MAG">      1.00000000</i>
    <separator name="electronic mixer details" >
     <i type="int" name="IMIX">     4</i>
     <i type="logical" name="MIXFIRST"> F  </i>
     <i type="int" name="MAXMIX">   -45</i>
     <i name="WC">    100.00000000</i>
     <i type="int" name="INIMIX">     1</i>
     <i type="int" name="MIXPRE">     1</i>
     <i type="int" name="MREMOVE">     5</i>
    </separator>
   </separator>
   <separator name="electronic dipolcorrection" >
    <i type="logical" name="LDIPOL"> F  </i>
    <i type="logical" name="LMONO"> F  </i>
    <i type="int" name="IDIPOL">     0</i>
    <i name="EPSILON">      1.00000000</i>
    <v name="DIPOL">   -100.00000000   -100.00000000   -100.00000000</v>
    <i name="EFIELD">      0.00000000</i>
   </separator>
  </separator>
  <separator name="grids" >
   <i type="int" name="NGX">    24</i>
   <i type="int" name="NGY">    24</i>
   <i type="int" name="NGZ">    24</i>
   <i type="int" name="NGXF">    48</i>
   <i type="int" name="NGYF">    48</i>
   <i type="int" name="NGZF">    48</i>
   <i type="logical" name="ADDGRID"> F  </i>
  </separator>
  <separator name="ionic" >
   <i type="int" name="NSW">    10</i>
   <i type="int" name="IBRION">     2</i>
   <i type="int" name="MDALGO">     0</i>
   <i type="int" name="ISIF">     2</i>
   <i name="PSTRESS">      0.00000000</i>
   <i name="EDIFFG">     -0.02000000</i>
   <i type="int" name="NFREE">     1</i>
   <i name="POTIM">      0.20000000</i>
   <i name="SMASS">     -3.00000000</i>
   <i name="SCALEE">      1.00000000</i>
  </separator>
  <separator name="ionic md" >
   <i name="TEBEG">      0.00010000</i>
   <i name="TEEND">      0.00010000</i>
   <i type="int" name="NBLOCK">     1</i>
   <i type="int" name="KBLOCK">    10</i>
   <i type="int" name="NPACO">   256</i>
   <i name="APACO">     16.00000000</i>
  </separator>
  <separator name="symmetry" >
   <i type="int" name="ISYM">     2</i>
   <i name="SYMPREC">      0.00001000</i>
  </separator>
  <separator name="dos" >
   <i type="int" name="LORBIT">     0</i>
   <v name="RWIGS">     -1.00000000</v>
   <i type="int" name="NEDOS">   301</i>
   <i name="EMIN">     10.00000000</i>
   <i name="EMAX">    -10.00000000</i>
   <i name="EFERMI">      0.00000000</i>
  </separator>
  <separator name="writing" >
   <i type="int" name="NWRITE">     2</i>
   <i type="logical" name="LWAVE"> T  </i>
   <i type="logical" name="LDOWNSAMPLE"> F  </i>
   <i type="logical" name="LCHARG"> T  </i>
   <i type="logical" name="LPARD"> F  </i>
   <i type="logical" name="LVTOT"> F  </i>
   <i type="logical" name="LVHAR"> F  </i>
   <i type="logical" name="LELF"> F  </i>
   <i type="logical" name="LOPTICS"> F  </i>
   <v name="STM">      0.00000000      0.00000000      0.00000000      0.00000000      0.00000000      0.00000000      0.00000000</v>
  </separator>
  <separator name="performance" >
   <i type="int" name="NPAR">     2</i>
   <i type="int" name="NSIM">     4</i>
   <i type="int" name="NBLK">    -1</i>
   <i type="logical" name="LPLANE"> T  </i>
   <i type="logical" name="LSCALAPACK"> F  </i>
   <i type="logical" name="LSCAAWARE"> F  </i>
   <i type="logical" name="LSCALU"> F  </i>
   <i type="logical" name="LASYNC"> F  </i>
   <i type="logical" name="LORBITALREAL"> F  </i>
  </separator>
  <separator name="miscellaneous" >
   <i type="int" name="IDIOT">     3</i>
   <i type="int" name="ISPECIAL">     0</i>
   <i type="logical" name="LMUSIC"> F  </i>
   <v name="POMASS">    195.08000000</v>
   <v name="DARWINR">      0.00000000</v>
   <v name="DARWINV">      1.00000000</v>
   <i type="logical" name="LCORR"> T  </i>
  </separator>
  <i type="logical" name="GGA_COMPAT"> T  </i>
  <i type="logical" name="LBERRY"> F  </i>
  <i type="int" name="ICORELEVEL">     0</i>
  <i type="logical" name="LDAU"> F  </i>
  <i type="int" name="I_CONSTRAINED_M">     0</i>
  <separator name="electronic exchange-correlation" >
   <i type="string" name="GGA">91</i>
   <i type="int" name="VOSKOWN">     0</i>
   <i type="logical" name="LHFCALC"> F  </i>
   <i type="string" name="PRECFOCK"></i>
   <i type="logical" name="LSYMGRAD"> F  </i>
   <i type="logical" name="LHFONE"> F  </i>
   <i type="logical" name="LRHFCALC"> F  </i>
   <i type="logical" name="LTHOMAS"> F  </i>
   <i type="logical" name="LMODELHF"> F  </i>
   <i name="ENCUT4O">     -1.00000000</i>
   <i type="int" name="EXXOEP">     0</i>
   <i type="int" name="FOURORBIT">     0</i>
   <i name="AEXX">      0.00000000</i>
   <i name="HFALPHA">      0.00000000</i>
   <i name="MCALPHA">      0.00000000</i>
   <i name="ALDAX">      1.00000000</i>
   <i name="AGGAX">      1.00000000</i>
   <i name="ALDAC">      1.00000000</i>
   <i name="AGGAC">      1.00000000</i>
   <i type="int" name="NKREDX">     1</i>
   <i type="int" name="NKREDY">     1</i>
   <i type="int" name="NKREDZ">     1</i>
   <i type="logical" name="SHIFTRED"> F  </i>
   <i type="logical" name="ODDONLY"> F  </i>
   <i type="logical" name="EVENONLY"> F  </i>
   <i type="int" name="LMAXFOCK">     0</i>
   <i type="int" name="NMAXFOCKAE">     0</i>
   <i type="logical" name="LFOCKAEDFT"> F  </i>
   <i name="HFSCREEN">      0.00000000</i>
   <i name="HFSCREENC">      0.00000000</i>
   <i type="int" name="NBANDSGWLOW">     0</i>
  </separator>
  <separator name="vdW DFT" >
   <i type="logical" name="LUSE_VDW"> F  </i>
   <i name="Zab_VDW">     -0.84910000</i>
   <i name="PARAM1">      0.12340000</i>
   <i name="PARAM2">      1.00000000</i>
   <i name="PARAM3">      0.00000000</i>
  </separator>
  <separator name="model GW" >
   <i type="int" name="MODEL_GW">     0</i>
   <i name="MODEL_EPS0">     11.11320000</i>
   <i name="MODEL_ALPHA">      1.00000000</i>
  </separator>
  <separator name="linear response parameters" >
   <i type="logical" name="LEPSILON"> F  </i>
   <i type="logical" name="LRPA"> F  </i>
   <i type="logical" name="LNABLA"> F  </i>
   <i type="logical" name="LVEL"> F  </i>
   <i type="int" name="KINTER">     0</i>
   <i name="CSHIFT">      0.10000000</i>
   <i name="OMEGAMAX">     -1.00000000</i>
   <i name="DEG_THRESHOLD">      0.00200000</i>
   <i name="RTIME">     -0.10000000</i>
   <i name="WPLASMAI">      0.00000000</i>
   <v name="DFIELD">      0.00000000      0.00000000      0.00000000</v>
   <v name="WPLASMA">      0.00000000      0.00000000      0.00000000      0.00000000      0.00000000      0.00000000      0.00000000      0.00000000      0.00000000</v>
  </separator>
  <separator name="orbital magnetization" >
   <i type="logical" name="NUCIND"> F  </i>
   <v name="MAGPOS">      0.00000000      0.00000000      0.00000000</v>
   <i type="logical" name="LNICSALL"> T  </i>
   <i type="logical" name="ORBITALMAG"> F  </i>
   <i type="logical" name="LMAGBLOCH"> F  </i>
   <i type="logical" name="LCHIMAG"> F  </i>
   <i type="logical" name="LGAUGE"> T  </i>
   <i type="int" name="MAGATOM">     0</i>
   <v name="MAGDIPOL">      0.00000000      0.00000000      0.00000000</v>
   <v name="AVECCONST">      0.00000000      0.00000000      0.00000000</v>
  </separator>
  <separator name="response functions" >
   <i type="logical" name="LADDER"> F  </i>
   <i type="logical" name="LRPAFORCE"> F  </i>
   <i type="logical" name="LFXC"> F  </i>
   <i type="logical" name="LHARTREE"> T  </i>
   <i type="int" name="IBSE">     0</i>
   <v type="int" name="KPOINT">    -1     0     0     0</v>
   <i type="logical" name="LTCTE"> F  </i>
   <i type="logical" name="LTETE"> F  </i>
   <i type="logical" name="LTRIPLET"> F  </i>
   <i type="logical" name="LFXCEPS"> F  </i>
   <i type="logical" name="LFXHEG"> F  </i>
   <i type="int" name="NATURALO">     2</i>
   <i type="logical" name="L2ORDER"> F  </i>
   <i type="logical" name="LMP2LT"> F  </i>
   <i type="logical" name="LUSEW"> F  </i>
   <i name="ENCUTGW">     -2.00000000</i>
   <i name="ENCUTGWSOFT">     -2.00000000</i>
   <i name="ENCUTLF">     -1.00000000</i>
   <i type="int" name="LMAXMP2">    -1</i>
   <i name="SCISSOR">      0.00000000</i>
   <i type="int" name="NOMEGA">     0</i>
   <i type="int" name="NOMEGAR">     0</i>
   <i type="int" name="NBANDSGW">    -1</i>
   <i type="int" name="NBANDSO">    -1</i>
   <i type="int" name="NBANDSV">    -1</i>
   <i type="int" name="NELM">     1</i>
   <i type="int" name="NELMHF">     1</i>
   <i type="int" name="DIM">     3</i>
   <i type="int" name="ANTIRES">     0</i>
   <i name="OMEGAMAX">    -30.00000000</i>
   <i name="OMEGAMIN">    -30.00000000</i>
   <i name="OMEGATL">   -200.00000000</i>
   <i type="int" name="OMEGAGRID">   140</i>
   <i name="CSHIFT">     -0.10000000</i>
   <i type="logical" name="SELFENERGY"> F  </i>
   <i type="logical" name="LSPECTRAL"> F  </i>
   <i type="logical" name="LSPECTRALGW"> F  </i>
   <i type="logical" name="LSINGLES"> F  </i>
   <i type="logical" name="LFERMIGW"> F  </i>
   <i type="logical" name="ODDONLYGW"> F  </i>
   <i type="logical" name="EVENONLYGW"> F  </i>
   <i type="int" name="NKREDLFX">     1</i>
   <i type="int" name="NKREDLFY">     1</i>
   <i type="int" name="NKREDLFZ">     1</i>
   <i type="int" name="MAXMEM">  2800</i>
   <i type="int" name="TELESCOPE">     0</i>
   <i type="int" name="TAUPAR">     1</i>
   <i type="int" name="OMEGAPAR">    -1</i>
   <i name="LAMBDA">      1.00000000</i>
  </separator>
  <separator name="External order field" >
   <i name="OFIELD_KAPPA">      0.00000000</i>
   <v name="OFIELD_K">      0.00000000      0.00000000      0.00000000</v>
   <i name="OFIELD_Q6_NEAR">      0.00000000</i>
   <i name="OFIELD_Q6_FAR">      0.00000000</i>
   <i name="OFIELD_A">      0.00000000</i>
  </separator>
 </parameters>
 <atominfo>
  <atoms>       4 </atoms>
  <types>       1 </types>
  <array name="atoms" >
   <dimension dim="1">ion</dimension>
   <field type="string">element</field>
   <field type="int">atomtype</field>
   <set>
    <rc><c>Pt</c><c>   1</c></rc>
    <rc><c>Pt</c><c>   1</c></rc>
    <rc><c>Pt</c><c>   1</c></rc>
    <rc><c>Pt</c><c>   1</c></rc>
   </set>
  </array>
  <array name="atomtypes" >
   <dimension dim="1">type</dimension>
   <field type="int">atomspertype</field>
   <field type="string">element</field>
   <field>mass</field>
   <field>valence</field>
   <field type="string">pseudopotential</field>
   <set>
    <rc><c>   4</c><c>Pt</c><c>    195.08000000</c><c>     10.00000000</c><c> PAW_PBE Pt 05Jan2001                   </c></rc>
   </set>
  </array>
 </atominfo>
 <structure name="initialpos" >
  <crystal>
   <varray name="basis" >
    <v>       4.20000000       0.00000000       0.00000000 </v>
    <v>       0.00000000       4.20000000       0.00000000 </v>
    <v>       0.00000000       0.00000000       4.20000000 </v>
   </varray>
   <i name="volume">     74.08800000 </i>
   <varray name="rec_basis" >
    <v>       0.23809524       0.00000000       0.00000000 </v>
    <v>       0.00000000       0.23809524       0.00000000 </v>
    <v>       0.00000000       0.00000000       0.23809524 </v>
   </varray>
  </crystal>
  <varray name="positions" >
   <v>       0.00000000       0.00000000       0.00000000 </v>
   <v>       0.00000000       0.50000000       0.50000000 </v>
   <v>       0.50000000       0.00000000       0.50000000 </v>
   <v>       0.50000000       0.50000000       0.00000000 </v>
  </varray>
 </structure>
 <calculation>
  <scstep>
   <time name="dav">    1.12    1.12</time>
   <time name="total">    1.14    1.24</time>
   <energy>
    <i name="alphaZ">    314.21073318 </i>
    <i name="ewald">  -3143.85898843 </i>
    <i name="hartreedc">   -362.52297372 </i>
    <i name="XCdc">     11.27088644 </i>
    <i name="pawpsdc">   2293.79710215 </i>
    <i name="pawaedc">  -2181.03440391 </i>
    <i name="eentropy">      0.00231170 </i>
    <i name="bandstr">    564.49995822 </i>
    <i name="atom">   2915.53815049 </i>
    <i name="e_fr_energy">    411.90277614 </i>
    <i name="e_wo_entrp">    411.90046443 </i>
    <i name="e_0_energy">    411.90219821 </i>
   </energy>
  </scstep>
  <scstep>
   <time name="dav">    1.14    1.14</time>
   <time name="total">    1.15    1.15</time>
   <energy>
    <i name="e_fr_energy">      6.80407346 </i>
    <i name="e_wo_entrp">      6.80426576 </i>
    <i name="e_0_energy">      6.80412154 </i>
   </energy>
  </scstep>
  <scstep>
   <time name="dav">    1.60    1.60</time>
   <time name="total">    1.61    1.61</time>
   <energy>
    <i name="e_fr_energy">    -24.08276640 </i>
    <i name="e_wo_entrp">    -24.07675213 </i>
    <i name="e_0_energy">    -24.08126283 </i>
   </energy>
  </scstep>
  <scstep>
   <time name="dav">    1.24    1.24</time>
   <time name="total">    1.25    1.25</time>
   <energy>
    <i name="e_fr_energy">    -25.14446703 </i>
    <i name="e_wo_entrp">    -25.13815071 </i>
    <i name="e_0_energy">    -25.14288795 </i>
   </energy>
  </scstep>
  <scstep>
   <time name="dav">    1.45    1.45</time>
   <time name="total">    1.53    1.53</time>
   <energy>
    <i name="e_fr_energy">    -25.18135820 </i>
    <i name="e_wo_entrp">    -25.17494157 </i>
    <i name="e_0_energy">    -25.17975404 </i>
   </energy>
  </scstep>
  <scstep>
   <time name="dav">    1.39    1.39</time>
   <time name="total">    1.49    1.49</time>
   <energy>
    <i name="e_fr_energy">    -23.52380569 </i>
    <i name="e_wo_entrp">    -23.51540755 </i>
    <i name="e_0_energy">    -23.52170616 </i>
   </energy>
  </scstep>
  <scstep>
   <time name="dav">    1.62    1.62</time>
   <time name="total">    1.71    1.71</time>
   <energy>
    <i name="e_fr_energy">    -23.46350639 </i>
    <i name="e_wo_entrp">    -23.45421636 </i>
    <i name="e_0_energy">    -23.46118388 </i>
   </energy>
  </scstep>
  <scstep>
   <time name="dav">    1.16    1.16</time>
   <time name="total">    1.26    1.26</time>
   <energy>
    <i name="e_fr_energy">    -23.45571749 </i>
    <i name="e_wo_entrp">    -23.44645699 </i>
    <i name="e_0_energy">    -23.45340237 </i>
   </energy>
  </scstep>
  <scstep>
   <time name="dav">    1.51    1.51</time>
   <time name="total">    1.61    1.61</time>
   <energy>
    <i name="e_fr_energy">    -23.45546452 </i>
    <i name="e_wo_entrp">    -23.44611412 </i>
    <i name="e_0_energy">    -23.45312692 </i>
   </energy>
  </scstep>
  <scstep>
   <time name="dav">    1.27    1.27</time>
   <time name="total">    1.36    1.36</time>
   <energy>
    <i name="e_fr_energy">    -23.45547484 </i>
    <i name="e_wo_entrp">    -23.44613867 </i>
    <i name="e_0_energy">    -23.45314080 </i>
   </energy>
  </scstep>
  <scstep>
   <time name="dav">    1.02    1.02</time>
   <time name="total">    1.11    1.11</time>
   <energy>
    <i name="e_fr_energy">    -23.45547600 </i>
    <i name="e_wo_entrp">    -23.44614227 </i>
    <i name="e_0_energy">    -23.45314257 </i>
   </energy>
  </scstep>
  <scstep>
   <time name="dav">    0.76    0.76</time>
   <time name="total">    0.77    0.77</time>
   <energy>
    <i name="alphaZ">    314.21073318 </i>
    <i name="ewald">  -3143.85898843 </i>
    <i name="hartreedc">   -320.97255558 </i>
    <i name="XCdc">      9.54940729 </i>
    <i name="pawpsdc">   2284.39957877 </i>
    <i name="pawaedc">  -2178.42001495 </i>
    <i name="eentropy">     -0.00933377 </i>
    <i name="bandstr">     96.10754733 </i>
    <i name="atom">   2915.53815049 </i>
    <i name="e_fr_energy">    -23.45547566 </i>
    <i name="e_wo_entrp">    -23.44614189 </i>
    <i name="e_0_energy">    -23.45314222 </i>
   </energy>
  </scstep>
  <structure>
   <crystal>
    <varray name="basis" >
     <v>       4.20000000       0.00000000       0.00000000 </v>
     <v>       0.00000000       4.20000000       0.00000000 </v>
     <v>       0.00000000       0.00000000       4.20000000 </v>
    </varray>
    <i name="volume">     74.08800000 </i>
    <varray name="rec_basis" >
     <v>       0.23809524       0.00000000       0.00000000 </v>
     <v>       0.00000000       0.23809524       0.00000000 </v>
     <v>       0.00000000       0.00000000       0.23809524 </v>
    </varray>
   </crystal>
   <varray name="positions" >
    <v>       0.00000000       0.00000000       0.00000000 </v>
    <v>       0.00000000       0.50000000       0.50000000 </v>
    <v>       0.50000000       0.00000000       0.50000000 </v>
    <v>       0.50000000       0.50000000       0.00000000 </v>
   </varray>
  </structure>
  <varray name="forces" >
   <v>      -0.00000000       0.00000000      -0.00000000 </v>
   <v>       0.00000000      -0.00000000       0.00000000 </v>
   <v>       0.00000000       0.00000000       0.00000000 </v>
   <v>      -0.00000000       0.00000000      -0.00000000 </v>
  </varray>
  <varray name="stress" >
   <v>    -245.18726256       0.00000000      -0.00000000 </v>
   <v>       0.00000000    -245.18726256       0.00000000 </v>
   <v>      -0.00000000       0.00000000    -245.18726256 </v>
  </varray>
  <energy>
   <i name="e_fr_energy">    -23.45547566 </i>
   <i name="e_wo_entrp">    -23.45314222 </i>
   <i name="e_0_energy">     -0.00933377 </i>
  </energy>
  <time name="totalsc">   17.29   18.33</time>
  <eigenvalues>
   <array>
    <dimension dim="1">band</dimension>
    <dimension dim="2">kpoint</dimension>
    <dimension dim="3">spin</dimension>
    <field>eigene</field>
    <field>occ</field>
    <set>
     <set comment="spin 1">
      <set comment="kpoint 1">
       <r>   -3.0412    1.0000 </r>
       <r>   -0.0761    1.0000 </r>
       <r>   -0.0761    1.0000 </r>
       <r>   -0.0761    1.0000 </r>
       <r>    0.2573    1.0000 </r>
       <r>    0.2573    1.0000 </r>
       <r>    0.2573    1.0000 </r>
       <r>    2.2809    1.0000 </r>
       <r>    2.3048    1.0000 </r>
       <r>    2.3048    1.0000 </r>
       <r>    3.8294    1.0000 </r>
       <r>    3.8294    1.0000 </r>
       <r>    4.9690    0.6621 </r>
       <r>    4.9690    0.6621 </r>
       <r>    4.9690    0.6621 </r>
       <r>    5.2083   -0.0496 </r>
       <r>    5.2083   -0.0496 </r>
       <r>    5.2083   -0.0496 </r>
       <r>    5.3099   -0.0076 </r>
       <r>    5.3099   -0.0076 </r>
       <r>    5.3099   -0.0076 </r>
       <r>    7.2903    0.0000 </r>
       <r>    7.2903    0.0000 </r>
       <r>    7.2903    0.0000 </r>
      </set>
      <set comment="kpoint 2">
       <r>   -2.9547    1.0000 </r>
       <r>   -0.0504    1.0000 </r>
       <r>   -0.0166    1.0000 </r>
       <r>   -0.0166    1.0000 </r>
       <r>    0.2900    1.0000 </r>
       <r>    0.3063    1.0000 </r>
       <r>    0.3063    1.0000 </r>
       <r>    2.2371    1.0000 </r>
       <r>    2.3413    1.0000 </r>
       <r>    2.3443    1.0000 </r>
       <r>    3.7784    1.0000 </r>
       <r>    3.8504    1.0000 </r>
       <r>    4.8371    1.0433 </r>
       <r>    4.8371    1.0433 </r>
       <r>    4.9114    0.9048 </r>
       <r>    4.9114    0.9048 </r>
       <r>    4.9358    0.8146 </r>
       <r>    5.0993    0.0638 </r>
       <r>    5.2291   -0.0426 </r>
       <r>    5.3051   -0.0092 </r>
       <r>    5.3051   -0.0092 </r>
       <r>    6.7533    0.0000 </r>
       <r>    7.7036    0.0000 </r>
       <r>    7.7036    0.0000 </r>
      </set>
      <set comment="kpoint 3">
       <r>   -2.7834    1.0000 </r>
       <r>   -0.0061    1.0000 </r>
       <r>    0.0990    1.0000 </r>
       <r>    0.0990    1.0000 </r>
       <r>    0.3548    1.0000 </r>
       <r>    0.4042    1.0000 </r>
       <r>    0.4042    1.0000 </r>
       <r>    2.1461    1.0000 </r>
       <r>    2.4204    1.0000 </r>
       <r>    2.4228    1.0000 </r>
       <r>    3.6805    1.0000 </r>
       <r>    3.8918    1.0000 </r>
       <r>    4.3490    0.9999 </r>
       <r>    4.3490    0.9999 </r>
       <r>    4.7565    1.0361 </r>
       <r>    4.7565    1.0361 </r>
       <r>    4.8605    1.0205 </r>
       <r>    4.8780    0.9918 </r>
       <r>    5.0883    0.0974 </r>
       <r>    5.3043   -0.0095 </r>
       <r>    5.3043   -0.0095 </r>
       <r>    5.9957    0.0000 </r>
       <r>    8.3076    0.0000 </r>
       <r>    8.3076    0.0000 </r>
      </set>
      <set comment="kpoint 4">
       <r>   -2.5309    1.0000 </r>
       <r>    0.0407    1.0000 </r>
       <r>    0.2632    1.0000 </r>
       <r>    0.2632    1.0000 </r>
       <r>    0.4501    1.0000 </r>
       <r>    0.5505    1.0000 </r>
       <r>    0.5505    1.0000 </r>
       <r>    2.0162    1.0000 </r>
       <r>    2.5380    1.0000 </r>
       <r>    2.5395    1.0000 </r>
       <r>    3.5437    1.0000 </r>
       <r>    3.8229    1.0000 </r>
       <r>    3.8229    1.0000 </r>
       <r>    3.9523    1.0000 </r>
       <r>    4.5148    0.9974 </r>
       <r>    4.5501    0.9961 </r>
       <r>    4.5501    0.9961 </r>
       <r>    4.7130    1.0159 </r>
       <r>    4.9376    0.8072 </r>
       <r>    5.2769   -0.0204 </r>
       <r>    5.3042   -0.0095 </r>
       <r>    5.3042   -0.0095 </r>
       <r>    8.9838    0.0000 </r>
       <r>    8.9838    0.0000 </r>
      </set>
      <set comment="kpoint 5">
       <r>   -2.2034    1.0000 </r>
       <r>    0.0602    1.0000 </r>
       <r>    0.4637    1.0000 </r>
       <r>    0.4637    1.0000 </r>
       <r>    0.5737    1.0000 </r>
       <r>    0.7438    1.0000 </r>
       <r>    0.7438    1.0000 </r>
       <r>    1.8554    1.0000 </r>
       <r>    2.6904    1.0000 </r>
       <r>    2.6933    1.0000 </r>
       <r>    3.3077    1.0000 </r>
       <r>    3.3077    1.0000 </r>
       <r>    3.3823    1.0000 </r>
       <r>    3.9865    1.0000 </r>
       <r>    4.0302    1.0000 </r>
       <r>    4.3003    1.0000 </r>
       <r>    4.3003    1.0000 </r>
       <r>    4.4804    0.9985 </r>
       <r>    4.7504    1.0332 </r>
       <r>    4.8130    1.0514 </r>
       <r>    5.3043   -0.0095 </r>
       <r>    5.3043   -0.0095 </r>
       <r>    9.6762    0.0000 </r>
       <r>    9.6762    0.0000 </r>
      </set>
      <set comment="kpoint 6">
       <r>   -1.8114    1.0000 </r>
       <r>    0.0059    1.0000 </r>
       <r>    0.6796    1.0000 </r>
       <r>    0.6796    1.0000 </r>
       <r>    0.7226    1.0000 </r>
       <r>    0.9814    1.0000 </r>
       <r>    0.9814    1.0000 </r>
       <r>    1.6726    1.0000 </r>
       <r>    2.8196    1.0000 </r>
       <r>    2.8196    1.0000 </r>
       <r>    2.8632    1.0000 </r>
       <r>    2.8822    1.0000 </r>
       <r>    3.2266    1.0000 </r>
       <r>    3.4464    1.0000 </r>
       <r>    4.0367    1.0000 </r>
       <r>    4.0367    1.0000 </r>
       <r>    4.1231    1.0000 </r>
       <r>    4.2032    1.0000 </r>
       <r>    4.3609    0.9999 </r>
       <r>    4.6971    1.0098 </r>
       <r>    5.3045   -0.0094 </r>
       <r>    5.3045   -0.0094 </r>
       <r>   10.3075    0.0000 </r>
       <r>   10.3075    0.0000 </r>
      </set>
      <set comment="kpoint 7">
       <r>   -1.3727    1.0000 </r>
       <r>   -0.1743    1.0000 </r>
       <r>    0.8756    1.0000 </r>
       <r>    0.8756    1.0000 </r>
       <r>    0.8928    1.0000 </r>
       <r>    1.2613    1.0000 </r>
       <r>    1.2613    1.0000 </r>
       <r>    1.4766    1.0000 </r>
       <r>    2.3669    1.0000 </r>
       <r>    2.3669    1.0000 </r>
       <r>    2.9447    1.0000 </r>
       <r>    3.0621    1.0000 </r>
       <r>    3.1034    1.0000 </r>
       <r>    3.2116    1.0000 </r>
       <r>    3.8048    1.0000 </r>
       <r>    3.8048    1.0000 </r>
       <r>    3.9123    1.0000 </r>
       <r>    4.0207    1.0000 </r>
       <r>    4.2279    1.0000 </r>
       <r>    4.5794    0.9952 </r>
       <r>    5.3047   -0.0093 </r>
       <r>    5.3047   -0.0093 </r>
       <r>   10.6501    0.0000 </r>
       <r>   10.6501    0.0000 </r>
      </set>
      <set comment="kpoint 8">
       <r>   -0.9179    1.0000 </r>
       <r>   -0.4967    1.0000 </r>
       <r>    0.9979    1.0000 </r>
       <r>    0.9979    1.0000 </r>
       <r>    1.0793    1.0000 </r>
       <r>    1.2762    1.0000 </r>
       <r>    1.5842    1.0000 </r>
       <r>    1.5842    1.0000 </r>
       <r>    1.9552    1.0000 </r>
       <r>    1.9552    1.0000 </r>
       <r>    2.8793    1.0000 </r>
       <r>    2.8863    1.0000 </r>
       <r>    3.3529    1.0000 </r>
       <r>    3.4280    1.0000 </r>
       <r>    3.6252    1.0000 </r>
       <r>    3.6639    1.0000 </r>
       <r>    3.6639    1.0000 </r>
       <r>    3.7087    1.0000 </r>
       <r>    4.3414    0.9999 </r>
       <r>    4.4598    0.9990 </r>
       <r>    5.3048   -0.0093 </r>
       <r>    5.3048   -0.0093 </r>
       <r>   10.7018    0.0000 </r>
       <r>   10.7018    0.0000 </r>
      </set>
      <set comment="kpoint 9">
       <r>   -2.8693    1.0000 </r>
       <r>    0.0097    1.0000 </r>
       <r>    0.0097    1.0000 </r>
       <r>    0.0351    1.0000 </r>
       <r>    0.3384    1.0000 </r>
       <r>    0.3384    1.0000 </r>
       <r>    0.3602    1.0000 </r>
       <r>    2.2136    1.0000 </r>
       <r>    2.3600    1.0000 </r>
       <r>    2.3787    1.0000 </r>
       <r>    3.7652    1.0000 </r>
       <r>    3.8390    1.0000 </r>
       <r>    4.6217    0.9957 </r>
       <r>    4.6792    1.0043 </r>
       <r>    4.6792    1.0043 </r>
       <r>    4.8199    1.0504 </r>
       <r>    4.9019    0.9340 </r>
       <r>    4.9019    0.9340 </r>
       <r>    5.2280   -0.0431 </r>
       <r>    5.2280   -0.0431 </r>
       <r>    5.2581   -0.0292 </r>
       <r>    7.1755    0.0000 </r>
       <r>    7.1755    0.0000 </r>
       <r>    8.0428    0.0000 </r>
      </set>
      <set comment="kpoint 10">
       <r>   -2.7000    1.0000 </r>
       <r>    0.0552    1.0000 </r>
       <r>    0.1266    1.0000 </r>
       <r>    0.1358    1.0000 </r>
       <r>    0.4018    1.0000 </r>
       <r>    0.4350    1.0000 </r>
       <r>    0.4670    1.0000 </r>
       <r>    2.1370    1.0000 </r>
       <r>    2.4274    1.0000 </r>
       <r>    2.4487    1.0000 </r>
       <r>    3.6841    1.0000 </r>
       <r>    3.8743    1.0000 </r>
       <r>    4.1794    1.0000 </r>
       <r>    4.2143    1.0000 </r>
       <r>    4.4158    0.9996 </r>
       <r>    4.6866    1.0064 </r>
       <r>    4.7636    1.0393 </r>
       <r>    4.8198    1.0504 </r>
       <r>    5.0963    0.0726 </r>
       <r>    5.2227   -0.0451 </r>
       <r>    5.2301   -0.0422 </r>
       <r>    6.4548    0.0000 </r>
       <r>    7.7503    0.0000 </r>
       <r>    8.5821    0.0000 </r>
      </set>
      <set comment="kpoint 11">
       <r>   -2.4505    1.0000 </r>
       <r>    0.1037    1.0000 </r>
       <r>    0.2808    1.0000 </r>
       <r>    0.2928    1.0000 </r>
       <r>    0.4952    1.0000 </r>
       <r>    0.5793    1.0000 </r>
       <r>    0.6233    1.0000 </r>
       <r>    2.0155    1.0000 </r>
       <r>    2.5403    1.0000 </r>
       <r>    2.5504    1.0000 </r>
       <r>    3.5590    1.0000 </r>
       <r>    3.6594    1.0000 </r>
       <r>    3.7410    1.0000 </r>
       <r>    3.9412    1.0000 </r>
       <r>    4.0449    1.0000 </r>
       <r>    4.4967    0.9980 </r>
       <r>    4.5707    0.9955 </r>
       <r>    4.6559    0.9993 </r>
       <r>    4.9430    0.7839 </r>
       <r>    5.2173   -0.0470 </r>
       <r>    5.2184   -0.0466 </r>
       <r>    5.7681    0.0000 </r>
       <r>    8.3586    0.0000 </r>
       <r>    9.2137    0.0000 </r>
      </set>
      <set comment="kpoint 12">
       <r>   -2.1268    1.0000 </r>
       <r>    0.1249    1.0000 </r>
       <r>    0.4638    1.0000 </r>
       <r>    0.4963    1.0000 </r>
       <r>    0.6161    1.0000 </r>
       <r>    0.7699    1.0000 </r>
       <r>    0.8209    1.0000 </r>
       <r>    1.8616    1.0000 </r>
       <r>    2.6737    1.0000 </r>
       <r>    2.6926    1.0000 </r>
       <r>    3.1566    1.0000 </r>
       <r>    3.2591    1.0000 </r>
       <r>    3.4183    1.0000 </r>
       <r>    3.5993    1.0000 </r>
       <r>    4.0299    1.0000 </r>
       <r>    4.2633    1.0000 </r>
       <r>    4.3331    0.9999 </r>
       <r>    4.4223    0.9995 </r>
       <r>    4.7621    1.0386 </r>
       <r>    5.2115   -0.0488 </r>
       <r>    5.2154   -0.0476 </r>
       <r>    5.2257   -0.0440 </r>
       <r>    8.9451    0.0000 </r>
       <r>    9.8676    0.0000 </r>
      </set>
      <set comment="kpoint 13">
       <r>   -1.7395    1.0000 </r>
       <r>    0.0710    1.0000 </r>
       <r>    0.6738    1.0000 </r>
       <r>    0.7170    1.0000 </r>
       <r>    0.7616    1.0000 </r>
       <r>    1.0035    1.0000 </r>
       <r>    1.0465    1.0000 </r>
       <r>    1.6852    1.0000 </r>
       <r>    2.6858    1.0000 </r>
       <r>    2.7868    1.0000 </r>
       <r>    2.7938    1.0000 </r>
       <r>    2.8780    1.0000 </r>
       <r>    3.1696    1.0000 </r>
       <r>    3.3135    1.0000 </r>
       <r>    4.0154    1.0000 </r>
       <r>    4.0771    1.0000 </r>
       <r>    4.1366    1.0000 </r>
       <r>    4.1523    1.0000 </r>
       <r>    4.4884    0.9983 </r>
       <r>    4.8873    0.9719 </r>
       <r>    5.2092   -0.0494 </r>
       <r>    5.2132   -0.0483 </r>
       <r>    9.4604    0.0000 </r>
       <r>   10.3886    0.0000 </r>
      </set>
      <set comment="kpoint 14">
       <r>   -1.3055    1.0000 </r>
       <r>   -0.1107    1.0000 </r>
       <r>    0.8849    1.0000 </r>
       <r>    0.9196    1.0000 </r>
       <r>    0.9276    1.0000 </r>
       <r>    1.2764    1.0000 </r>
       <r>    1.2863    1.0000 </r>
       <r>    1.4954    1.0000 </r>
       <r>    2.2568    1.0000 </r>
       <r>    2.3582    1.0000 </r>
       <r>    2.8055    1.0000 </r>
       <r>    2.8655    1.0000 </r>
       <r>    3.0929    1.0000 </r>
       <r>    3.3516    1.0000 </r>
       <r>    3.7995    1.0000 </r>
       <r>    3.8448    1.0000 </r>
       <r>    3.8713    1.0000 </r>
       <r>    4.1495    1.0000 </r>
       <r>    4.2580    1.0000 </r>
       <r>    4.6904    1.0076 </r>
       <r>    5.2086   -0.0495 </r>
       <r>    5.2115   -0.0488 </r>
       <r>    9.8579    0.0000 </r>
       <r>   10.4428    0.0000 </r>
      </set>
      <set comment="kpoint 15">
       <r>   -0.8544    1.0000 </r>
       <r>   -0.4346    1.0000 </r>
       <r>    1.0342    1.0000 </r>
       <r>    1.0459    1.0000 </r>
       <r>    1.1093    1.0000 </r>
       <r>    1.3008    1.0000 </r>
       <r>    1.5455    1.0000 </r>
       <r>    1.5836    1.0000 </r>
       <r>    1.8851    1.0000 </r>
       <r>    1.9631    1.0000 </r>
       <r>    2.7370    1.0000 </r>
       <r>    2.7472    1.0000 </r>
       <r>    3.3334    1.0000 </r>
       <r>    3.5487    1.0000 </r>
       <r>    3.5950    1.0000 </r>
       <r>    3.6762    1.0000 </r>
       <r>    3.6934    1.0000 </r>
       <r>    3.8265    1.0000 </r>
       <r>    4.3911    0.9998 </r>
       <r>    4.5341    0.9967 </r>
       <r>    5.2091   -0.0494 </r>
       <r>    5.2101   -0.0491 </r>
       <r>   10.1276    0.0000 </r>
       <r>   10.3108    0.0000 </r>
      </set>
      <set comment="kpoint 16">
       <r>   -2.5348    1.0000 </r>
       <r>    0.1746    1.0000 </r>
       <r>    0.1746    1.0000 </r>
       <r>    0.2112    1.0000 </r>
       <r>    0.4958    1.0000 </r>
       <r>    0.4958    1.0000 </r>
       <r>    0.5870    1.0000 </r>
       <r>    2.0926    1.0000 </r>
       <r>    2.4682    1.0000 </r>
       <r>    2.5005    1.0000 </r>
       <r>    3.6512    1.0000 </r>
       <r>    3.8833    1.0000 </r>
       <r>    3.8988    1.0000 </r>
       <r>    3.8988    1.0000 </r>
       <r>    3.9410    1.0000 </r>
       <r>    4.5626    0.9957 </r>
       <r>    4.7190    1.0185 </r>
       <r>    4.7190    1.0185 </r>
       <r>    5.0782    0.1323 </r>
       <r>    5.0782    0.1323 </r>
       <r>    5.1503   -0.0327 </r>
       <r>    7.0162    0.0000 </r>
       <r>    7.0162    0.0000 </r>
       <r>    9.0479    0.0000 </r>
      </set>
      <set comment="kpoint 17">
       <r>   -2.2913    1.0000 </r>
       <r>    0.2264    1.0000 </r>
       <r>    0.3271    1.0000 </r>
       <r>    0.3448    1.0000 </r>
       <r>    0.5853    1.0000 </r>
       <r>    0.6363    1.0000 </r>
       <r>    0.7539    1.0000 </r>
       <r>    1.9987    1.0000 </r>
       <r>    2.5614    1.0000 </r>
       <r>    2.5733    1.0000 </r>
       <r>    3.3904    1.0000 </r>
       <r>    3.5452    1.0000 </r>
       <r>    3.5601    1.0000 </r>
       <r>    3.5700    1.0000 </r>
       <r>    3.9502    1.0000 </r>
       <r>    4.3939    0.9997 </r>
       <r>    4.5576    0.9959 </r>
       <r>    4.5899    0.9951 </r>
       <r>    4.9013    0.9355 </r>
       <r>    5.0624    0.1943 </r>
       <r>    5.0962    0.0727 </r>
       <r>    6.3128    0.0000 </r>
       <r>    7.5851    0.0000 </r>
       <r>    9.6155    0.0000 </r>
      </set>
      <set comment="kpoint 18">
       <r>   -1.9756    1.0000 </r>
       <r>    0.2510    1.0000 </r>
       <r>    0.4833    1.0000 </r>
       <r>    0.5542    1.0000 </r>
       <r>    0.7008    1.0000 </r>
       <r>    0.8218    1.0000 </r>
       <r>    0.9525    1.0000 </r>
       <r>    1.8651    1.0000 </r>
       <r>    2.6522    1.0000 </r>
       <r>    2.7024    1.0000 </r>
       <r>    2.9095    1.0000 </r>
       <r>    3.1567    1.0000 </r>
       <r>    3.1622    1.0000 </r>
       <r>    3.4509    1.0000 </r>
       <r>    4.0577    1.0000 </r>
       <r>    4.1879    1.0000 </r>
       <r>    4.3468    0.9999 </r>
       <r>    4.3774    0.9998 </r>
       <r>    4.7030    1.0120 </r>
       <r>    5.0518    0.2405 </r>
       <r>    5.0647    0.1848 </r>
       <r>    5.7233    0.0000 </r>
       <r>    8.1269    0.0000 </r>
       <r>   10.1597    0.0000 </r>
      </set>
      <set comment="kpoint 19">
       <r>   -1.5976    1.0000 </r>
       <r>    0.1977    1.0000 </r>
       <r>    0.6768    1.0000 </r>
       <r>    0.7843    1.0000 </r>
       <r>    0.8393    1.0000 </r>
       <r>    1.0477    1.0000 </r>
       <r>    1.1597    1.0000 </r>
       <r>    1.7051    1.0000 </r>
       <r>    2.4661    1.0000 </r>
       <r>    2.7007    1.0000 </r>
       <r>    2.7387    1.0000 </r>
       <r>    2.8209    1.0000 </r>
       <r>    2.8811    1.0000 </r>
       <r>    3.3876    1.0000 </r>
       <r>    3.9679    1.0000 </r>
       <r>    4.1105    1.0000 </r>
       <r>    4.1175    1.0000 </r>
       <r>    4.1928    1.0000 </r>
       <r>    4.4606    0.9989 </r>
       <r>    5.0447    0.2732 </r>
       <r>    5.0477    0.2592 </r>
       <r>    5.2785   -0.0197 </r>
       <r>    8.6163    0.0000 </r>
       <r>   10.1877    0.0000 </r>
      </set>
      <set comment="kpoint 20">
       <r>   -1.1736    1.0000 </r>
       <r>    0.0124    1.0000 </r>
       <r>    0.8960    1.0000 </r>
       <r>    0.9965    1.0000 </r>
       <r>    1.0020    1.0000 </r>
       <r>    1.3060    1.0000 </r>
       <r>    1.3441    1.0000 </r>
       <r>    1.5296    1.0000 </r>
       <r>    2.0725    1.0000 </r>
       <r>    2.3381    1.0000 </r>
       <r>    2.6030    1.0000 </r>
       <r>    2.6704    1.0000 </r>
       <r>    3.0900    1.0000 </r>
       <r>    3.4441    1.0000 </r>
       <r>    3.7798    1.0000 </r>
       <r>    3.8438    1.0000 </r>
       <r>    3.8859    1.0000 </r>
       <r>    4.1732    1.0000 </r>
       <r>    4.3495    0.9999 </r>
       <r>    4.9623    0.6947 </r>
       <r>    5.0395    0.2980 </r>
       <r>    5.0400    0.2959 </r>
       <r>    9.0357    0.0000 </r>
       <r>    9.9415    0.0000 </r>
      </set>
      <set comment="kpoint 21">
       <r>   -0.7307    1.0000 </r>
       <r>   -0.3142    1.0000 </r>
       <r>    1.0940    1.0000 </r>
       <r>    1.1394    1.0000 </r>
       <r>    1.1680    1.0000 </r>
       <r>    1.3480    1.0000 </r>
       <r>    1.4918    1.0000 </r>
       <r>    1.5641    1.0000 </r>
       <r>    1.7819    1.0000 </r>
       <r>    1.9726    1.0000 </r>
       <r>    2.5401    1.0000 </r>
       <r>    2.5888    1.0000 </r>
       <r>    3.3229    1.0000 </r>
       <r>    3.5757    1.0000 </r>
       <r>    3.6238    1.0000 </r>
       <r>    3.6850    1.0000 </r>
       <r>    3.7257    1.0000 </r>
       <r>    3.8801    1.0000 </r>
       <r>    4.5256    0.9970 </r>
       <r>    4.7245    1.0209 </r>
       <r>    5.0367    0.3118 </r>
       <r>    5.0372    0.3094 </r>
       <r>    9.3829    0.0000 </r>
       <r>    9.6755    0.0000 </r>
      </set>
      <set comment="kpoint 22">
       <r>   -2.0569    1.0000 </r>
       <r>    0.4021    1.0000 </r>
       <r>    0.4021    1.0000 </r>
       <r>    0.4104    1.0000 </r>
       <r>    0.7200    1.0000 </r>
       <r>    0.7200    1.0000 </r>
       <r>    0.9253    1.0000 </r>
       <r>    1.9457    1.0000 </r>
       <r>    2.6058    1.0000 </r>
       <r>    2.6248    1.0000 </r>
       <r>    3.0674    1.0000 </r>
       <r>    3.0674    1.0000 </r>
       <r>    3.3132    1.0000 </r>
       <r>    3.5125    1.0000 </r>
       <r>    4.0204    1.0000 </r>
       <r>    4.2499    1.0000 </r>
       <r>    4.4708    0.9987 </r>
       <r>    4.4708    0.9987 </r>
       <r>    4.8622    1.0182 </r>
       <r>    4.8622    1.0182 </r>
       <r>    4.9885    0.5614 </r>
       <r>    6.8516    0.0000 </r>
       <r>    6.8516    0.0000 </r>
       <r>   10.0735    0.0000 </r>
      </set>
      <set comment="kpoint 23">
       <r>   -1.7533    1.0000 </r>
       <r>    0.4317    1.0000 </r>
       <r>    0.5342    1.0000 </r>
       <r>    0.6194    1.0000 </r>
       <r>    0.8276    1.0000 </r>
       <r>    0.8982    1.0000 </r>
       <r>    1.1180    1.0000 </r>
       <r>    1.8506    1.0000 </r>
       <r>    2.6213    1.0000 </r>
       <r>    2.6361    1.0000 </r>
       <r>    2.7398    1.0000 </r>
       <r>    2.7401    1.0000 </r>
       <r>    2.9952    1.0000 </r>
       <r>    3.4359    1.0000 </r>
       <r>    4.0746    1.0000 </r>
       <r>    4.1519    1.0000 </r>
       <r>    4.2976    1.0000 </r>
       <r>    4.2983    1.0000 </r>
       <r>    4.6391    0.9970 </r>
       <r>    4.8366    1.0436 </r>
       <r>    4.9107    0.9071 </r>
       <r>    6.2215    0.0000 </r>
       <r>    7.3649    0.0000 </r>
       <r>   10.0297    0.0000 </r>
      </set>
      <set comment="kpoint 24">
       <r>   -1.3900    1.0000 </r>
       <r>    0.3784    1.0000 </r>
       <r>    0.6992    1.0000 </r>
       <r>    0.8615    1.0000 </r>
       <r>    0.9551    1.0000 </r>
       <r>    1.1146    1.0000 </r>
       <r>    1.3038    1.0000 </r>
       <r>    1.7222    1.0000 </r>
       <r>    2.2140    1.0000 </r>
       <r>    2.4760    1.0000 </r>
       <r>    2.6329    1.0000 </r>
       <r>    2.6488    1.0000 </r>
       <r>    2.9003    1.0000 </r>
       <r>    3.3938    1.0000 </r>
       <r>    3.8878    1.0000 </r>
       <r>    4.0636    1.0000 </r>
       <r>    4.0911    1.0000 </r>
       <r>    4.3249    1.0000 </r>
       <r>    4.3922    0.9998 </r>
       <r>    4.8215    1.0500 </r>
       <r>    4.8607    1.0203 </r>
       <r>    5.7165    0.0000 </r>
       <r>    7.8385    0.0000 </r>
       <r>    9.6721    0.0000 </r>
      </set>
      <set comment="kpoint 25">
       <r>   -0.9819    1.0000 </r>
       <r>    0.1862    1.0000 </r>
       <r>    0.9034    1.0000 </r>
       <r>    1.0984    1.0000 </r>
       <r>    1.1031    1.0000 </r>
       <r>    1.3516    1.0000 </r>
       <r>    1.4391    1.0000 </r>
       <r>    1.5729    1.0000 </r>
       <r>    1.8602    1.0000 </r>
       <r>    2.3018    1.0000 </r>
       <r>    2.3442    1.0000 </r>
       <r>    2.5643    1.0000 </r>
       <r>    3.0947    1.0000 </r>
       <r>    3.4496    1.0000 </r>
       <r>    3.7321    1.0000 </r>
       <r>    3.8054    1.0000 </r>
       <r>    3.8845    1.0000 </r>
       <r>    4.1211    1.0000 </r>
       <r>    4.5276    0.9970 </r>
       <r>    4.8136    1.0514 </r>
       <r>    4.8315    1.0464 </r>
       <r>    5.3257   -0.0031 </r>
       <r>    8.2637    0.0000 </r>
       <r>    9.3224    0.0000 </r>
      </set>
      <set comment="kpoint 26">
       <r>   -0.5533    1.0000 </r>
       <r>   -0.1439    1.0000 </r>
       <r>    1.1361    1.0000 </r>
       <r>    1.2531    1.0000 </r>
       <r>    1.2737    1.0000 </r>
       <r>    1.4136    1.0000 </r>
       <r>    1.4703    1.0000 </r>
       <r>    1.4747    1.0000 </r>
       <r>    1.7231    1.0000 </r>
       <r>    1.9776    1.0000 </r>
       <r>    2.3542    1.0000 </r>
       <r>    2.4509    1.0000 </r>
       <r>    3.3130    1.0000 </r>
       <r>    3.5510    1.0000 </r>
       <r>    3.6124    1.0000 </r>
       <r>    3.6663    1.0000 </r>
       <r>    3.7250    1.0000 </r>
       <r>    3.8491    1.0000 </r>
       <r>    4.7562    1.0359 </r>
       <r>    4.8116    1.0515 </r>
       <r>    4.8167    1.0510 </r>
       <r>    5.0162    0.4155 </r>
       <r>    8.6417    0.0000 </r>
       <r>    8.9866    0.0000 </r>
      </set>
      <set comment="kpoint 27">
       <r>   -1.4661    1.0000 </r>
       <r>    0.6212    1.0000 </r>
       <r>    0.6553    1.0000 </r>
       <r>    0.6553    1.0000 </r>
       <r>    0.9958    1.0000 </r>
       <r>    0.9958    1.0000 </r>
       <r>    1.2973    1.0000 </r>
       <r>    1.8043    1.0000 </r>
       <r>    2.3470    1.0000 </r>
       <r>    2.3470    1.0000 </r>
       <r>    2.6211    1.0000 </r>
       <r>    2.7777    1.0000 </r>
       <r>    2.8208    1.0000 </r>
       <r>    3.3807    1.0000 </r>
       <r>    3.9305    1.0000 </r>
       <r>    4.1676    1.0000 </r>
       <r>    4.1676    1.0000 </r>
       <r>    4.3164    1.0000 </r>
       <r>    4.5924    0.9951 </r>
       <r>    4.5924    0.9951 </r>
       <r>    4.7795    1.0458 </r>
       <r>    6.7034    0.0000 </r>
       <r>    6.7034    0.0000 </r>
       <r>    9.5720    0.0000 </r>
      </set>
      <set comment="kpoint 28">
       <r>   -1.1233    1.0000 </r>
       <r>    0.5991    1.0000 </r>
       <r>    0.7460    1.0000 </r>
       <r>    0.9042    1.0000 </r>
       <r>    1.1084    1.0000 </r>
       <r>    1.2021    1.0000 </r>
       <r>    1.4607    1.0000 </r>
       <r>    1.7235    1.0000 </r>
       <r>    1.9905    1.0000 </r>
       <r>    2.1592    1.0000 </r>
       <r>    2.5196    1.0000 </r>
       <r>    2.5825    1.0000 </r>
       <r>    2.9481    1.0000 </r>
       <r>    3.3447    1.0000 </r>
       <r>    3.7745    1.0000 </r>
       <r>    3.9687    1.0000 </r>
       <r>    3.9959    1.0000 </r>
       <r>    4.3305    0.9999 </r>
       <r>    4.5298    0.9969 </r>
       <r>    4.5666    0.9956 </r>
       <r>    4.6820    1.0051 </r>
       <r>    6.1575    0.0000 </r>
       <r>    7.1574    0.0000 </r>
       <r>    9.1236    0.0000 </r>
      </set>
      <set comment="kpoint 29">
       <r>   -0.7385    1.0000 </r>
       <r>    0.3946    1.0000 </r>
       <r>    0.9090    1.0000 </r>
       <r>    1.1531    1.0000 </r>
       <r>    1.2310    1.0000 </r>
       <r>    1.4275    1.0000 </r>
       <r>    1.5620    1.0000 </r>
       <r>    1.6155    1.0000 </r>
       <r>    1.6874    1.0000 </r>
       <r>    2.1184    1.0000 </r>
       <r>    2.2441    1.0000 </r>
       <r>    2.4891    1.0000 </r>
       <r>    3.1105    1.0000 </r>
       <r>    3.3953    1.0000 </r>
       <r>    3.6460    1.0000 </r>
       <r>    3.7361    1.0000 </r>
       <r>    3.8141    1.0000 </r>
       <r>    4.0567    1.0000 </r>
       <r>    4.5565    0.9959 </r>
       <r>    4.6169    0.9955 </r>
       <r>    4.7761    1.0446 </r>
       <r>    5.7182    0.0000 </r>
       <r>    7.5780    0.0000 </r>
       <r>    8.7169    0.0000 </r>
      </set>
      <set comment="kpoint 30">
       <r>   -0.3325    1.0000 </r>
       <r>    0.0623    1.0000 </r>
       <r>    1.1079    1.0000 </r>
       <r>    1.3032    1.0000 </r>
       <r>    1.3603    1.0000 </r>
       <r>    1.4407    1.0000 </r>
       <r>    1.4911    1.0000 </r>
       <r>    1.5485    1.0000 </r>
       <r>    1.7221    1.0000 </r>
       <r>    1.9737    1.0000 </r>
       <r>    2.2040    1.0000 </r>
       <r>    2.3480    1.0000 </r>
       <r>    3.2957    1.0000 </r>
       <r>    3.5051    1.0000 </r>
       <r>    3.5538    1.0000 </r>
       <r>    3.6002    1.0000 </r>
       <r>    3.6654    1.0000 </r>
       <r>    3.7878    1.0000 </r>
       <r>    4.5598    0.9958 </r>
       <r>    4.5784    0.9953 </r>
       <r>    5.0504    0.2469 </r>
       <r>    5.3585    0.0027 </r>
       <r>    7.9676    0.0000 </r>
       <r>    8.3397    0.0000 </r>
      </set>
      <set comment="kpoint 31">
       <r>   -0.8070    1.0000 </r>
       <r>    0.8193    1.0000 </r>
       <r>    0.8349    1.0000 </r>
       <r>    0.8349    1.0000 </r>
       <r>    1.2972    1.0000 </r>
       <r>    1.2972    1.0000 </r>
       <r>    1.6031    1.0000 </r>
       <r>    1.6990    1.0000 </r>
       <r>    1.8860    1.0000 </r>
       <r>    1.8860    1.0000 </r>
       <r>    2.3536    1.0000 </r>
       <r>    2.5277    1.0000 </r>
       <r>    3.0278    1.0000 </r>
       <r>    3.3040    1.0000 </r>
       <r>    3.6420    1.0000 </r>
       <r>    3.8301    1.0000 </r>
       <r>    3.8301    1.0000 </r>
       <r>    4.2958    1.0000 </r>
       <r>    4.2958    1.0000 </r>
       <r>    4.5323    0.9968 </r>
       <r>    4.7828    1.0469 </r>
       <r>    6.5854    0.0000 </r>
       <r>    6.5854    0.0000 </r>
       <r>    8.6203    0.0000 </r>
      </set>
      <set comment="kpoint 32">
       <r>   -0.4544    1.0000 </r>
       <r>    0.6101    1.0000 </r>
       <r>    0.9178    1.0000 </r>
       <r>    1.0371    1.0000 </r>
       <r>    1.3900    1.0000 </r>
       <r>    1.5147    1.0000 </r>
       <r>    1.6463    1.0000 </r>
       <r>    1.6844    1.0000 </r>
       <r>    1.6889    1.0000 </r>
       <r>    1.9459    1.0000 </r>
       <r>    2.1620    1.0000 </r>
       <r>    2.4315    1.0000 </r>
       <r>    3.1246    1.0000 </r>
       <r>    3.3565    1.0000 </r>
       <r>    3.5276    1.0000 </r>
       <r>    3.6244    1.0000 </r>
       <r>    3.6742    1.0000 </r>
       <r>    4.0203    1.0000 </r>
       <r>    4.2876    1.0000 </r>
       <r>    4.4203    0.9995 </r>
       <r>    5.0669    0.1759 </r>
       <r>    6.1145    0.0000 </r>
       <r>    6.9937    0.0000 </r>
       <r>    8.1744    0.0000 </r>
      </set>
      <set comment="kpoint 33">
       <r>   -0.0828    1.0000 </r>
       <r>    0.2840    1.0000 </r>
       <r>    1.0307    1.0000 </r>
       <r>    1.1086    1.0000 </r>
       <r>    1.4827    1.0000 </r>
       <r>    1.5711    1.0000 </r>
       <r>    1.6230    1.0000 </r>
       <r>    1.6797    1.0000 </r>
       <r>    1.7428    1.0000 </r>
       <r>    1.9585    1.0000 </r>
       <r>    2.1018    1.0000 </r>
       <r>    2.2800    1.0000 </r>
       <r>    3.2477    1.0000 </r>
       <r>    3.4190    1.0000 </r>
       <r>    3.4852    1.0000 </r>
       <r>    3.5223    1.0000 </r>
       <r>    3.5430    1.0000 </r>
       <r>    3.7549    1.0000 </r>
       <r>    4.3034    1.0000 </r>
       <r>    4.3457    0.9999 </r>
       <r>    5.3773    0.0043 </r>
       <r>    5.7205    0.0000 </r>
       <r>    7.3846    0.0000 </r>
       <r>    7.7708    0.0000 </r>
      </set>
      <set comment="kpoint 34">
       <r>   -0.1435    1.0000 </r>
       <r>    0.7918    1.0000 </r>
       <r>    0.7918    1.0000 </r>
       <r>    0.9299    1.0000 </r>
       <r>    1.5645    1.0000 </r>
       <r>    1.5645    1.0000 </r>
       <r>    1.6561    1.0000 </r>
       <r>    1.7811    1.0000 </r>
       <r>    1.8491    1.0000 </r>
       <r>    1.8491    1.0000 </r>
       <r>    2.0584    1.0000 </r>
       <r>    2.3571    1.0000 </r>
       <r>    3.1256    1.0000 </r>
       <r>    3.4098    1.0000 </r>
       <r>    3.4161    1.0000 </r>
       <r>    3.4916    1.0000 </r>
       <r>    3.4916    1.0000 </r>
       <r>    4.0218    1.0000 </r>
       <r>    4.0218    1.0000 </r>
       <r>    4.2575    1.0000 </r>
       <r>    5.3835    0.0045 </r>
       <r>    6.5048    0.0000 </r>
       <r>    6.5048    0.0000 </r>
       <r>    7.7016    0.0000 </r>
      </set>
      <set comment="kpoint 35">
       <r>    0.1785    1.0000 </r>
       <r>    0.4958    1.0000 </r>
       <r>    0.8999    1.0000 </r>
       <r>    0.9339    1.0000 </r>
       <r>    1.6087    1.0000 </r>
       <r>    1.6422    1.0000 </r>
       <r>    1.7205    1.0000 </r>
       <r>    1.7964    1.0000 </r>
       <r>    1.8506    1.0000 </r>
       <r>    1.9442    1.0000 </r>
       <r>    2.0483    1.0000 </r>
       <r>    2.2287    1.0000 </r>
       <r>    3.1782    1.0000 </r>
       <r>    3.3106    1.0000 </r>
       <r>    3.3490    1.0000 </r>
       <r>    3.3831    1.0000 </r>
       <r>    3.5661    1.0000 </r>
       <r>    3.7749    1.0000 </r>
       <r>    4.0599    1.0000 </r>
       <r>    4.1372    1.0000 </r>
       <r>    5.7218    0.0000 </r>
       <r>    6.0894    0.0000 </r>
       <r>    6.8902    0.0000 </r>
       <r>    7.2820    0.0000 </r>
      </set>
      <set comment="kpoint 36">
       <r>    0.4351    1.0000 </r>
       <r>    0.6763    1.0000 </r>
       <r>    0.6763    1.0000 </r>
       <r>    0.8194    1.0000 </r>
       <r>    1.6941    1.0000 </r>
       <r>    1.7212    1.0000 </r>
       <r>    1.7212    1.0000 </r>
       <r>    1.8004    1.0000 </r>
       <r>    1.9827    1.0000 </r>
       <r>    2.0227    1.0000 </r>
       <r>    2.0227    1.0000 </r>
       <r>    2.1537    1.0000 </r>
       <r>    3.1593    1.0000 </r>
       <r>    3.2358    1.0000 </r>
       <r>    3.2358    1.0000 </r>
       <r>    3.2479    1.0000 </r>
       <r>    3.6777    1.0000 </r>
       <r>    3.8461    1.0000 </r>
       <r>    3.8461    1.0000 </r>
       <r>    3.9676    1.0000 </r>
       <r>    6.0812    0.0000 </r>
       <r>    6.4642    0.0000 </r>
       <r>    6.4642    0.0000 </r>
       <r>    6.8549    0.0000 </r>
      </set>
      <set comment="kpoint 37">
       <r>   -2.7850    1.0000 </r>
       <r>    0.0613    1.0000 </r>
       <r>    0.0613    1.0000 </r>
       <r>    0.0613    1.0000 </r>
       <r>    0.3922    1.0000 </r>
       <r>    0.3922    1.0000 </r>
       <r>    0.3922    1.0000 </r>
       <r>    2.1946    1.0000 </r>
       <r>    2.3924    1.0000 </r>
       <r>    2.3924    1.0000 </r>
       <r>    3.7923    1.0000 </r>
       <r>    3.7923    1.0000 </r>
       <r>    4.4792    0.9985 </r>
       <r>    4.4792    0.9985 </r>
       <r>    4.4792    0.9985 </r>
       <r>    4.7481    1.0321 </r>
       <r>    4.7481    1.0321 </r>
       <r>    4.7481    1.0321 </r>
       <r>    5.2269   -0.0435 </r>
       <r>    5.2269   -0.0435 </r>
       <r>    5.2269   -0.0435 </r>
       <r>    7.5024    0.0000 </r>
       <r>    7.5024    0.0000 </r>
       <r>    7.5024    0.0000 </r>
      </set>
      <set comment="kpoint 38">
       <r>   -2.6180    1.0000 </r>
       <r>    0.1068    1.0000 </r>
       <r>    0.1619    1.0000 </r>
       <r>    0.1619    1.0000 </r>
       <r>    0.4553    1.0000 </r>
       <r>    0.4987    1.0000 </r>
       <r>    0.4987    1.0000 </r>
       <r>    2.1295    1.0000 </r>
       <r>    2.4478    1.0000 </r>
       <r>    2.4571    1.0000 </r>
       <r>    3.7041    1.0000 </r>
       <r>    3.8458    1.0000 </r>
       <r>    4.0632    1.0000 </r>
       <r>    4.0632    1.0000 </r>
       <r>    4.2058    1.0000 </r>
       <r>    4.6119    0.9953 </r>
       <r>    4.6266    0.9960 </r>
       <r>    4.6266    0.9960 </r>
       <r>    5.1664   -0.0451 </r>
       <r>    5.2048   -0.0503 </r>
       <r>    5.2048   -0.0503 </r>
       <r>    6.7721    0.0000 </r>
       <r>    8.0027    0.0000 </r>
       <r>    8.0027    0.0000 </r>
      </set>
      <set comment="kpoint 39">
       <r>   -2.3721    1.0000 </r>
       <r>    0.1552    1.0000 </r>
       <r>    0.3067    1.0000 </r>
       <r>    0.3067    1.0000 </r>
       <r>    0.5479    1.0000 </r>
       <r>    0.6546    1.0000 </r>
       <r>    0.6546    1.0000 </r>
       <r>    2.0178    1.0000 </r>
       <r>    2.5450    1.0000 </r>
       <r>    2.5537    1.0000 </r>
       <r>    3.5864    1.0000 </r>
       <r>    3.5911    1.0000 </r>
       <r>    3.5911    1.0000 </r>
       <r>    3.8283    1.0000 </r>
       <r>    3.9236    1.0000 </r>
       <r>    4.4244    0.9995 </r>
       <r>    4.4671    0.9988 </r>
       <r>    4.4671    0.9988 </r>
       <r>    5.0796    0.1272 </r>
       <r>    5.1785   -0.0500 </r>
       <r>    5.1785   -0.0500 </r>
       <r>    6.0548    0.0000 </r>
       <r>    8.5629    0.0000 </r>
       <r>    8.5629    0.0000 </r>
      </set>
      <set comment="kpoint 40">
       <r>   -2.0531    1.0000 </r>
       <r>    0.1764    1.0000 </r>
       <r>    0.4896    1.0000 </r>
       <r>    0.4896    1.0000 </r>
       <r>    0.6674    1.0000 </r>
       <r>    0.8512    1.0000 </r>
       <r>    0.8512    1.0000 </r>
       <r>    1.8720    1.0000 </r>
       <r>    2.6622    1.0000 </r>
       <r>    2.6815    1.0000 </r>
       <r>    3.1202    1.0000 </r>
       <r>    3.1202    1.0000 </r>
       <r>    3.4000    1.0000 </r>
       <r>    3.4657    1.0000 </r>
       <r>    4.0232    1.0000 </r>
       <r>    4.2014    1.0000 </r>
       <r>    4.2607    1.0000 </r>
       <r>    4.2607    1.0000 </r>
       <r>    4.9707    0.6532 </r>
       <r>    5.1579   -0.0395 </r>
       <r>    5.1579   -0.0395 </r>
       <r>    5.4215    0.0047 </r>
       <r>    9.1135    0.0000 </r>
       <r>    9.1135    0.0000 </r>
      </set>
      <set comment="kpoint 41">
       <r>   -1.6714    1.0000 </r>
       <r>    0.1225    1.0000 </r>
       <r>    0.7012    1.0000 </r>
       <r>    0.7012    1.0000 </r>
       <r>    0.8100    1.0000 </r>
       <r>    1.0727    1.0000 </r>
       <r>    1.0727    1.0000 </r>
       <r>    1.7031    1.0000 </r>
       <r>    2.6743    1.0000 </r>
       <r>    2.6743    1.0000 </r>
       <r>    2.7495    1.0000 </r>
       <r>    2.8393    1.0000 </r>
       <r>    3.0068    1.0000 </r>
       <r>    3.4044    1.0000 </r>
       <r>    3.9586    1.0000 </r>
       <r>    4.0301    1.0000 </r>
       <r>    4.0301    1.0000 </r>
       <r>    4.1411    1.0000 </r>
       <r>    4.8444    1.0379 </r>
       <r>    4.8828    0.9818 </r>
       <r>    5.1445   -0.0264 </r>
       <r>    5.1445   -0.0264 </r>
       <r>    9.5900    0.0000 </r>
       <r>    9.5900    0.0000 </r>
      </set>
      <set comment="kpoint 42">
       <r>   -1.2437    1.0000 </r>
       <r>   -0.0596    1.0000 </r>
       <r>    0.9192    1.0000 </r>
       <r>    0.9192    1.0000 </r>
       <r>    0.9716    1.0000 </r>
       <r>    1.2963    1.0000 </r>
       <r>    1.2963    1.0000 </r>
       <r>    1.5205    1.0000 </r>
       <r>    2.2716    1.0000 </r>
       <r>    2.2716    1.0000 </r>
       <r>    2.7390    1.0000 </r>
       <r>    2.7412    1.0000 </r>
       <r>    3.0248    1.0000 </r>
       <r>    3.4914    1.0000 </r>
       <r>    3.7095    1.0000 </r>
       <r>    3.8186    1.0000 </r>
       <r>    3.8186    1.0000 </r>
       <r>    4.2732    1.0000 </r>
       <r>    4.4261    0.9995 </r>
       <r>    4.7060    1.0131 </r>
       <r>    5.1367   -0.0161 </r>
       <r>    5.1367   -0.0161 </r>
       <r>    9.9221    0.0000 </r>
       <r>    9.9221    0.0000 </r>
      </set>
      <set comment="kpoint 43">
       <r>   -0.7984    1.0000 </r>
       <r>   -0.3825    1.0000 </r>
       <r>    1.0797    1.0000 </r>
       <r>    1.0797    1.0000 </r>
       <r>    1.1477    1.0000 </r>
       <r>    1.3328    1.0000 </r>
       <r>    1.4961    1.0000 </r>
       <r>    1.4961    1.0000 </r>
       <r>    1.9536    1.0000 </r>
       <r>    1.9536    1.0000 </r>
       <r>    2.6420    1.0000 </r>
       <r>    2.6690    1.0000 </r>
       <r>    3.2351    1.0000 </r>
       <r>    3.4655    1.0000 </r>
       <r>    3.6864    1.0000 </r>
       <r>    3.6864    1.0000 </r>
       <r>    3.7207    1.0000 </r>
       <r>    4.0390    1.0000 </r>
       <r>    4.4149    0.9996 </r>
       <r>    4.5610    0.9958 </r>
       <r>    5.1332   -0.0108 </r>
       <r>    5.1332   -0.0108 </r>
       <r>   10.0766    0.0000 </r>
       <r>   10.0766    0.0000 </r>
      </set>
      <set comment="kpoint 44">
       <r>   -2.4559    1.0000 </r>
       <r>    0.2070    1.0000 </r>
       <r>    0.2070    1.0000 </r>
       <r>    0.2348    1.0000 </r>
       <r>    0.5613    1.0000 </r>
       <r>    0.5613    1.0000 </r>
       <r>    0.6200    1.0000 </r>
       <r>    2.0919    1.0000 </r>
       <r>    2.4844    1.0000 </r>
       <r>    2.5011    1.0000 </r>
       <r>    3.6928    1.0000 </r>
       <r>    3.7936    1.0000 </r>
       <r>    3.7936    1.0000 </r>
       <r>    3.8046    1.0000 </r>
       <r>    3.8443    1.0000 </r>
       <r>    4.4630    0.9989 </r>
       <r>    4.4966    0.9980 </r>
       <r>    4.4966    0.9980 </r>
       <r>    5.1559   -0.0379 </r>
       <r>    5.1559   -0.0379 </r>
       <r>    5.1653   -0.0445 </r>
       <r>    7.2460    0.0000 </r>
       <r>    7.2460    0.0000 </r>
       <r>    8.4214    0.0000 </r>
      </set>
      <set comment="kpoint 45">
       <r>   -2.2169    1.0000 </r>
       <r>    0.2548    1.0000 </r>
       <r>    0.3474    1.0000 </r>
       <r>    0.3509    1.0000 </r>
       <r>    0.6531    1.0000 </r>
       <r>    0.7168    1.0000 </r>
       <r>    0.7879    1.0000 </r>
       <r>    2.0080    1.0000 </r>
       <r>    2.5608    1.0000 </r>
       <r>    2.5706    1.0000 </r>
       <r>    3.3356    1.0000 </r>
       <r>    3.4409    1.0000 </r>
       <r>    3.4451    1.0000 </r>
       <r>    3.6097    1.0000 </r>
       <r>    3.9214    1.0000 </r>
       <r>    4.3056    1.0000 </r>
       <r>    4.3079    1.0000 </r>
       <r>    4.3745    0.9998 </r>
       <r>    5.0791    0.1293 </r>
       <r>    5.1132    0.0279 </r>
       <r>    5.1147    0.0245 </r>
       <r>    6.5035    0.0000 </r>
       <r>    7.7670    0.0000 </r>
       <r>    8.9144    0.0000 </r>
      </set>
      <set comment="kpoint 46">
       <r>   -1.9075    1.0000 </r>
       <r>    0.2755    1.0000 </r>
       <r>    0.4999    1.0000 </r>
       <r>    0.5327    1.0000 </r>
       <r>    0.7704    1.0000 </r>
       <r>    0.9126    1.0000 </r>
       <r>    0.9861    1.0000 </r>
       <r>    1.8844    1.0000 </r>
       <r>    2.6424    1.0000 </r>
       <r>    2.6786    1.0000 </r>
       <r>    2.8885    1.0000 </r>
       <r>    3.0401    1.0000 </r>
       <r>    3.0700    1.0000 </r>
       <r>    3.5203    1.0000 </r>
       <r>    4.0391    1.0000 </r>
       <r>    4.0839    1.0000 </r>
       <r>    4.1305    1.0000 </r>
       <r>    4.2122    1.0000 </r>
       <r>    4.9651    0.6813 </r>
       <r>    5.0669    0.1759 </r>
       <r>    5.0679    0.1718 </r>
       <r>    5.8425    0.0000 </r>
       <r>    8.2808    0.0000 </r>
       <r>    9.4012    0.0000 </r>
      </set>
      <set comment="kpoint 47">
       <r>   -1.5374    1.0000 </r>
       <r>    0.2206    1.0000 </r>
       <r>    0.6900    1.0000 </r>
       <r>    0.7449    1.0000 </r>
       <r>    0.9078    1.0000 </r>
       <r>    1.1284    1.0000 </r>
       <r>    1.1878    1.0000 </r>
       <r>    1.7340    1.0000 </r>
       <r>    2.4769    1.0000 </r>
       <r>    2.6466    1.0000 </r>
       <r>    2.6822    1.0000 </r>
       <r>    2.7428    1.0000 </r>
       <r>    2.8185    1.0000 </r>
       <r>    3.4985    1.0000 </r>
       <r>    3.8453    1.0000 </r>
       <r>    3.9374    1.0000 </r>
       <r>    4.0168    1.0000 </r>
       <r>    4.1811    1.0000 </r>
       <r>    4.7933    1.0499 </r>
       <r>    5.0308    0.3407 </r>
       <r>    5.0328    0.3309 </r>
       <r>    5.3014   -0.0105 </r>
       <r>    8.7530    0.0000 </r>
       <r>    9.7729    0.0000 </r>
      </set>
      <set comment="kpoint 48">
       <r>   -1.1227    1.0000 </r>
       <r>    0.0373    1.0000 </r>
       <r>    0.9094    1.0000 </r>
       <r>    0.9731    1.0000 </r>
       <r>    1.0604    1.0000 </r>
       <r>    1.3208    1.0000 </r>
       <r>    1.3476    1.0000 </r>
       <r>    1.5681    1.0000 </r>
       <r>    2.1323    1.0000 </r>
       <r>    2.2940    1.0000 </r>
       <r>    2.5420    1.0000 </r>
       <r>    2.6406    1.0000 </r>
       <r>    2.9820    1.0000 </r>
       <r>    3.6069    1.0000 </r>
       <r>    3.6106    1.0000 </r>
       <r>    3.7608    1.0000 </r>
       <r>    3.8224    1.0000 </r>
       <r>    4.3404    0.9999 </r>
       <r>    4.5155    0.9974 </r>
       <r>    4.9317    0.8312 </r>
       <r>    5.0085    0.4559 </r>
       <r>    5.0104    0.4463 </r>
       <r>    9.1597    0.0000 </r>
       <r>    9.8763    0.0000 </r>
      </set>
      <set comment="kpoint 49">
       <r>   -0.6900    1.0000 </r>
       <r>   -0.2829    1.0000 </r>
       <r>    1.1253    1.0000 </r>
       <r>    1.1655    1.0000 </r>
       <r>    1.2245    1.0000 </r>
       <r>    1.3957    1.0000 </r>
       <r>    1.3995    1.0000 </r>
       <r>    1.4033    1.0000 </r>
       <r>    1.9492    1.0000 </r>
       <r>    2.0319    1.0000 </r>
       <r>    2.4934    1.0000 </r>
       <r>    2.5515    1.0000 </r>
       <r>    3.1696    1.0000 </r>
       <r>    3.3793    1.0000 </r>
       <r>    3.6604    1.0000 </r>
       <r>    3.6846    1.0000 </r>
       <r>    3.8476    1.0000 </r>
       <r>    4.1662    1.0000 </r>
       <r>    4.5128    0.9975 </r>
       <r>    4.7003    1.0110 </r>
       <r>    4.9986    0.5086 </r>
       <r>    4.9993    0.5048 </r>
       <r>    9.4894    0.0000 </r>
       <r>    9.7394    0.0000 </r>
      </set>
      <set comment="kpoint 50">
       <r>   -1.9889    1.0000 </r>
       <r>    0.3968    1.0000 </r>
       <r>    0.3968    1.0000 </r>
       <r>    0.4241    1.0000 </r>
       <r>    0.8084    1.0000 </r>
       <r>    0.8084    1.0000 </r>
       <r>    0.9608    1.0000 </r>
       <r>    1.9660    1.0000 </r>
       <r>    2.5983    1.0000 </r>
       <r>    2.6096    1.0000 </r>
       <r>    3.0230    1.0000 </r>
       <r>    3.0230    1.0000 </r>
       <r>    3.2043    1.0000 </r>
       <r>    3.5825    1.0000 </r>
       <r>    3.9888    1.0000 </r>
       <r>    4.1360    1.0000 </r>
       <r>    4.2107    1.0000 </r>
       <r>    4.2107    1.0000 </r>
       <r>    5.0239    0.3760 </r>
       <r>    5.0239    0.3760 </r>
       <r>    5.0395    0.2980 </r>
       <r>    6.9977    0.0000 </r>
       <r>    6.9977    0.0000 </r>
       <r>    9.3331    0.0000 </r>
      </set>
      <set comment="kpoint 51">
       <r>   -1.6940    1.0000 </r>
       <r>    0.4144    1.0000 </r>
       <r>    0.5401    1.0000 </r>
       <r>    0.5745    1.0000 </r>
       <r>    0.9241    1.0000 </r>
       <r>    1.0048    1.0000 </r>
       <r>    1.1521    1.0000 </r>
       <r>    1.8836    1.0000 </r>
       <r>    2.6159    1.0000 </r>
       <r>    2.6266    1.0000 </r>
       <r>    2.6968    1.0000 </r>
       <r>    2.7053    1.0000 </r>
       <r>    2.9078    1.0000 </r>
       <r>    3.5307    1.0000 </r>
       <r>    3.9710    1.0000 </r>
       <r>    3.9979    1.0000 </r>
       <r>    4.0896    1.0000 </r>
       <r>    4.1244    1.0000 </r>
       <r>    4.8963    0.9493 </r>
[...]
       <r>    5.6089    0.0002 </r>
       <r>    6.1306    0.0000 </r>
       <r>    6.1306    0.0000 </r>
       <r>    6.5696    0.0000 </r>
      </set>
      <set comment="kpoint 117">
       <r>   -0.4603    1.0000 </r>
       <r>   -0.2059    1.0000 </r>
       <r>   -0.2059    1.0000 </r>
       <r>   -0.2059    1.0000 </r>
       <r>    2.1244    1.0000 </r>
       <r>    2.1244    1.0000 </r>
       <r>    2.1244    1.0000 </r>
       <r>    2.3332    1.0000 </r>
       <r>    2.3332    1.0000 </r>
       <r>    2.4519    1.0000 </r>
       <r>    2.4519    1.0000 </r>
       <r>    2.4519    1.0000 </r>
       <r>    3.7646    1.0000 </r>
       <r>    3.7646    1.0000 </r>
       <r>    3.7646    1.0000 </r>
       <r>    4.0500    1.0000 </r>
       <r>    4.8043    1.0515 </r>
       <r>    4.8043    1.0515 </r>
       <r>    5.0313    0.3383 </r>
       <r>    5.0313    0.3383 </r>
       <r>    5.0313    0.3383 </r>
       <r>    6.5309    0.0000 </r>
       <r>    6.5309    0.0000 </r>
       <r>    6.5309    0.0000 </r>
      </set>
      <set comment="kpoint 118">
       <r>   -0.4157    1.0000 </r>
       <r>   -0.3306    1.0000 </r>
       <r>   -0.2502    1.0000 </r>
       <r>   -0.2502    1.0000 </r>
       <r>    2.1513    1.0000 </r>
       <r>    2.1513    1.0000 </r>
       <r>    2.2156    1.0000 </r>
       <r>    2.2865    1.0000 </r>
       <r>    2.3321    1.0000 </r>
       <r>    2.3721    1.0000 </r>
       <r>    2.4022    1.0000 </r>
       <r>    2.4022    1.0000 </r>
       <r>    4.0010    1.0000 </r>
       <r>    4.0010    1.0000 </r>
       <r>    4.0200    1.0000 </r>
       <r>    4.2006    1.0000 </r>
       <r>    4.9369    0.8101 </r>
       <r>    4.9994    0.5041 </r>
       <r>    4.9994    0.5041 </r>
       <r>    5.0141    0.4264 </r>
       <r>    5.1067    0.0438 </r>
       <r>    5.7728    0.0000 </r>
       <r>    6.5419    0.0000 </r>
       <r>    6.5419    0.0000 </r>
      </set>
      <set comment="kpoint 119">
       <r>   -0.4051    1.0000 </r>
       <r>   -0.3497    1.0000 </r>
       <r>   -0.3497    1.0000 </r>
       <r>   -0.3229    1.0000 </r>
       <r>    2.2026    1.0000 </r>
       <r>    2.2242    1.0000 </r>
       <r>    2.2242    1.0000 </r>
       <r>    2.2754    1.0000 </r>
       <r>    2.3031    1.0000 </r>
       <r>    2.3320    1.0000 </r>
       <r>    2.3320    1.0000 </r>
       <r>    2.3420    1.0000 </r>
       <r>    4.2803    1.0000 </r>
       <r>    4.3101    1.0000 </r>
       <r>    4.3101    1.0000 </r>
       <r>    4.4866    0.9983 </r>
       <r>    4.9047    0.9256 </r>
       <r>    4.9817    0.5970 </r>
       <r>    4.9817    0.5970 </r>
       <r>    4.9828    0.5914 </r>
       <r>    5.3720    0.0039 </r>
       <r>    5.9189    0.0000 </r>
       <r>    5.9189    0.0000 </r>
       <r>    6.2111    0.0000 </r>
      </set>
      <set comment="kpoint 120">
       <r>   -0.4253    1.0000 </r>
       <r>   -0.3979    1.0000 </r>
       <r>   -0.3979    1.0000 </r>
       <r>   -0.3979    1.0000 </r>
       <r>    2.2499    1.0000 </r>
       <r>    2.2499    1.0000 </r>
       <r>    2.2499    1.0000 </r>
       <r>    2.2746    1.0000 </r>
       <r>    2.2746    1.0000 </r>
       <r>    2.2877    1.0000 </r>
       <r>    2.2877    1.0000 </r>
       <r>    2.2877    1.0000 </r>
       <r>    4.6864    1.0064 </r>
       <r>    4.6864    1.0064 </r>
       <r>    4.6864    1.0064 </r>
       <r>    4.9923    0.5416 </r>
       <r>    4.9923    0.5416 </r>
       <r>    5.0189    0.4016 </r>
       <r>    5.0189    0.4016 </r>
       <r>    5.0189    0.4016 </r>
       <r>    5.1729   -0.0482 </r>
       <r>    5.7054    0.0000 </r>
       <r>    5.7054    0.0000 </r>
       <r>    5.7054    0.0000 </r>
      </set>
     </set>
    </set>
   </array>
  </eigenvalues>
  <separator name="orbital magnetization" >
   <v name="MAGDIPOLOUT">      0.00000000      0.00000000      0.00000000</v>
  </separator>
  <dos>
   <i name="efermi">      5.00018042 </i>
   <total>
    <array>
     <dimension dim="1">gridpoints</dimension>
     <dimension dim="2">spin</dimension>
     <field>energy</field>
     <field>total</field>
     <field>integrated</field>
     <set>
      <set comment="spin 1">
       <r>    -5.0412     0.0000     0.0000 </r>
       <r>    -4.9820     0.0000     0.0000 </r>
       <r>    -4.9229     0.0000     0.0000 </r>
       <r>    -4.8638     0.0000     0.0000 </r>
       <r>    -4.8046     0.0000     0.0000 </r>
       <r>    -4.7455     0.0000     0.0000 </r>
       <r>    -4.6863     0.0000     0.0000 </r>
       <r>    -4.6272     0.0000     0.0000 </r>
       <r>    -4.5680     0.0000     0.0000 </r>
       <r>    -4.5089     0.0000     0.0000 </r>
       <r>    -4.4498     0.0000     0.0000 </r>
       <r>    -4.3906     0.0000     0.0000 </r>
       <r>    -4.3315     0.0000     0.0000 </r>
       <r>    -4.2723     0.0000     0.0000 </r>
       <r>    -4.2132     0.0000     0.0000 </r>
       <r>    -4.1540     0.0000     0.0000 </r>
       <r>    -4.0949     0.0000     0.0000 </r>
       <r>    -4.0357     0.0000     0.0000 </r>
       <r>    -3.9766     0.0000     0.0000 </r>
       <r>    -3.9175     0.0000     0.0000 </r>
       <r>    -3.8583     0.0000     0.0000 </r>
       <r>    -3.7992     0.0000     0.0000 </r>
       <r>    -3.7400     0.0000     0.0000 </r>
       <r>    -3.6809     0.0000     0.0000 </r>
       <r>    -3.6217     0.0000     0.0000 </r>
       <r>    -3.5626     0.0001     0.0000 </r>
       <r>    -3.5035     0.0003     0.0000 </r>
       <r>    -3.4443     0.0005     0.0001 </r>
       <r>    -3.3852     0.0004     0.0001 </r>
       <r>    -3.3260    -0.0006     0.0000 </r>
       <r>    -3.2669    -0.0030    -0.0001 </r>
       <r>    -3.2077    -0.0049    -0.0004 </r>
       <r>    -3.1486    -0.0013    -0.0005 </r>
       <r>    -3.0895     0.0141     0.0003 </r>
       <r>    -3.0303     0.0430     0.0029 </r>
       <r>    -2.9712     0.0800     0.0076 </r>
       <r>    -2.9120     0.1172     0.0145 </r>
       <r>    -2.8529     0.1508     0.0235 </r>
       <r>    -2.7937     0.1795     0.0341 </r>
       <r>    -2.7346     0.2002     0.0459 </r>
       <r>    -2.6755     0.2116     0.0584 </r>
       <r>    -2.6163     0.2238     0.0717 </r>
       <r>    -2.5572     0.2490     0.0864 </r>
       <r>    -2.4980     0.2815     0.1030 </r>
       <r>    -2.4389     0.3005     0.1208 </r>
       <r>    -2.3797     0.2995     0.1385 </r>
       <r>    -2.3206     0.2977     0.1561 </r>
       <r>    -2.2615     0.3149     0.1748 </r>
       <r>    -2.2023     0.3488     0.1954 </r>
       <r>    -2.1432     0.3847     0.2181 </r>
       <r>    -2.0840     0.4106     0.2424 </r>
       <r>    -2.0249     0.4174     0.2671 </r>
       <r>    -1.9657     0.4022     0.2909 </r>
       <r>    -1.9066     0.3847     0.3136 </r>
       <r>    -1.8474     0.4012     0.3374 </r>
       <r>    -1.7883     0.4650     0.3649 </r>
       <r>    -1.7292     0.5396     0.3968 </r>
       <r>    -1.6700     0.5699     0.4305 </r>
       <r>    -1.6109     0.5398     0.4624 </r>
       <r>    -1.5517     0.4904     0.4914 </r>
       <r>    -1.4926     0.4830     0.5200 </r>
       <r>    -1.4334     0.5416     0.5520 </r>
       <r>    -1.3743     0.6265     0.5891 </r>
       <r>    -1.3152     0.6770     0.6291 </r>
       <r>    -1.2560     0.6810     0.6694 </r>
       <r>    -1.1969     0.6804     0.7096 </r>
       <r>    -1.1377     0.7055     0.7514 </r>
       <r>    -1.0786     0.7382     0.7950 </r>
       <r>    -1.0194     0.7500     0.8394 </r>
       <r>    -0.9603     0.7520     0.8839 </r>
       <r>    -0.9012     0.7912     0.9306 </r>
       <r>    -0.8420     0.8967     0.9837 </r>
       <r>    -0.7829     1.0260     1.0444 </r>
       <r>    -0.7237     1.0868     1.1086 </r>
       <r>    -0.6646     1.0504     1.1708 </r>
       <r>    -0.6054     1.0302     1.2317 </r>
       <r>    -0.5463     1.1897     1.3021 </r>
       <r>    -0.4872     1.5653     1.3946 </r>
       <r>    -0.4280     2.0150     1.5138 </r>
       <r>    -0.3689     2.3455     1.6525 </r>
       <r>    -0.3097     2.4797     1.7992 </r>
       <r>    -0.2506     2.5112     1.9477 </r>
       <r>    -0.1914     2.5956     2.1012 </r>
       <r>    -0.1323     2.8035     2.2670 </r>
       <r>    -0.0732     3.1080     2.4508 </r>
       <r>    -0.0140     3.4805     2.6567 </r>
       <r>     0.0451     3.9144     2.8882 </r>
       <r>     0.1043     4.3684     3.1466 </r>
       <r>     0.1634     4.7788     3.4292 </r>
       <r>     0.2226     5.1479     3.7337 </r>
       <r>     0.2817     5.5560     4.0622 </r>
       <r>     0.3408     6.0492     4.4200 </r>
       <r>     0.4000     6.5477     4.8073 </r>
       <r>     0.4591     6.9057     5.2157 </r>
       <r>     0.5183     7.0518     5.6328 </r>
       <r>     0.5774     7.0302     6.0485 </r>
       <r>     0.6366     6.9159     6.4576 </r>
       <r>     0.6957     6.7504     6.8568 </r>
       <r>     0.7549     6.5720     7.2455 </r>
       <r>     0.8140     6.4355     7.6261 </r>
       <r>     0.8731     6.3523     8.0018 </r>
       <r>     0.9323     6.2578     8.3719 </r>
       <r>     0.9914     6.0775     8.7314 </r>
       <r>     1.0506     5.7807     9.0733 </r>
       <r>     1.1097     5.3757     9.3912 </r>
       <r>     1.1689     4.9497     9.6839 </r>
       <r>     1.2280     4.7103     9.9625 </r>
       <r>     1.2871     4.8491    10.2493 </r>
       <r>     1.3463     5.3380    10.5650 </r>
       <r>     1.4054     5.9523    10.9171 </r>
       <r>     1.4646     6.4868    11.3007 </r>
       <r>     1.5237     6.8844    11.7079 </r>
       <r>     1.5829     7.1835    12.1327 </r>
       <r>     1.6420     7.4129    12.5711 </r>
       <r>     1.7011     7.5584    13.0182 </r>
       <r>     1.7603     7.6313    13.4695 </r>
       <r>     1.8194     7.7267    13.9265 </r>
       <r>     1.8786     7.9351    14.3958 </r>
       <r>     1.9377     8.1991    14.8807 </r>
       <r>     1.9969     8.3496    15.3745 </r>
       <r>     2.0560     8.3191    15.8666 </r>
       <r>     2.1151     8.2603    16.3551 </r>
       <r>     2.1743     8.4124    16.8526 </r>
       <r>     2.2334     8.8733    17.3774 </r>
       <r>     2.2926     9.5154    17.9402 </r>
       <r>     2.3517    10.1387    18.5398 </r>
       <r>     2.4109    10.7273    19.1743 </r>
       <r>     2.4700    11.4609    19.8521 </r>
       <r>     2.5291    12.3389    20.5819 </r>
       <r>     2.5883    12.9015    21.3449 </r>
       <r>     2.6474    12.5728    22.0885 </r>
       <r>     2.7066    11.2839    22.7559 </r>
       <r>     2.7657     9.5720    23.3220 </r>
       <r>     2.8249     8.0711    23.7993 </r>
       <r>     2.8840     7.0657    24.2172 </r>
       <r>     2.9432     6.5121    24.6024 </r>
       <r>     3.0023     6.2745    24.9735 </r>
       <r>     3.0614     6.2256    25.3417 </r>
       <r>     3.1206     6.2309    25.7102 </r>
       <r>     3.1797     6.2057    26.0772 </r>
       <r>     3.2389     6.2052    26.4442 </r>
       <r>     3.2980     6.3504    26.8198 </r>
       <r>     3.3572     6.6536    27.2133 </r>
       <r>     3.4163     7.0273    27.6289 </r>
       <r>     3.4754     7.4526    28.0697 </r>
       <r>     3.5346     7.9667    28.5409 </r>
       <r>     3.5937     8.4726    29.0420 </r>
       <r>     3.6529     8.7477    29.5593 </r>
       <r>     3.7120     8.6915    30.0734 </r>
       <r>     3.7712     8.3991    30.5701 </r>
       <r>     3.8303     7.9697    31.0415 </r>
       <r>     3.8894     7.4438    31.4817 </r>
       <r>     3.9486     6.9582    31.8933 </r>
       <r>     4.0077     6.7120    32.2902 </r>
       <r>     4.0669     6.6941    32.6861 </r>
       <r>     4.1260     6.6629    33.0802 </r>
       <r>     4.1852     6.4784    33.4634 </r>
       <r>     4.2443     6.2709    33.8342 </r>
       <r>     4.3034     6.2226    34.2023 </r>
       <r>     4.3626     6.3437    34.5775 </r>
       <r>     4.4217     6.5181    34.9630 </r>
       <r>     4.4809     6.6375    35.3555 </r>
       <r>     4.5400     6.6631    35.7496 </r>
       <r>     4.5992     6.6749    36.1444 </r>
       <r>     4.6583     6.8787    36.5512 </r>
       <r>     4.7174     7.4871    36.9940 </r>
       <r>     4.7766     8.5617    37.5004 </r>
       <r>     4.8357     9.9422    38.0884 </r>
       <r>     4.8949    11.2483    38.7536 </r>
       <r>     4.9540    11.9462    39.4602 </r>
       <r>     5.0132    11.5761    40.1448 </r>
       <r>     5.0723    10.1173    40.7432 </r>
       <r>     5.1314     8.1417    41.2247 </r>
       <r>     5.1906     6.4094    41.6038 </r>
       <r>     5.2497     5.2097    41.9119 </r>
       <r>     5.3089     4.2202    42.1615 </r>
       <r>     5.3680     3.0561    42.3423 </r>
       <r>     5.4272     1.7855    42.4479 </r>
       <r>     5.4863     0.8305    42.4970 </r>
       <r>     5.5455     0.5210    42.5278 </r>
       <r>     5.6046     0.8353    42.5772 </r>
       <r>     5.6637     1.4444    42.6626 </r>
       <r>     5.7229     1.9062    42.7753 </r>
       <r>     5.7820     1.9201    42.8889 </r>
       <r>     5.8412     1.5255    42.9791 </r>
       <r>     5.9003     1.0556    43.0416 </r>
       <r>     5.9595     0.8589    43.0924 </r>
       <r>     6.0186     1.0348    43.1536 </r>
       <r>     6.0777     1.3859    43.2355 </r>
       <r>     6.1369     1.5966    43.3300 </r>
       <r>     6.1960     1.4947    43.4184 </r>
       <r>     6.2552     1.1845    43.4884 </r>
       <r>     6.3143     0.9471    43.5444 </r>
       <r>     6.3735     1.0095    43.6041 </r>
       <r>     6.4326     1.3528    43.6841 </r>
       <r>     6.4917     1.6970    43.7845 </r>
       <r>     6.5509     1.7257    43.8866 </r>
       <r>     6.6100     1.3954    43.9691 </r>
       <r>     6.6692     0.9920    44.0278 </r>
       <r>     6.7283     0.8492    44.0780 </r>
       <r>     6.7875     1.0455    44.1398 </r>
       <r>     6.8466     1.3821    44.2216 </r>
       <r>     6.9057     1.5888    44.3155 </r>
       <r>     6.9649     1.5286    44.4059 </r>
       <r>     7.0240     1.2675    44.4809 </r>
       <r>     7.0832     1.0059    44.5404 </r>
       <r>     7.1423     0.9320    44.5955 </r>
       <r>     7.2015     1.0925    44.6601 </r>
       <r>     7.2606     1.3679    44.7410 </r>
       <r>     7.3197     1.5647    44.8336 </r>
       <r>     7.3789     1.5565    44.9256 </r>
       <r>     7.4380     1.3742    45.0069 </r>
       <r>     7.4972     1.1677    45.0760 </r>
       <r>     7.5563     1.0708    45.1393 </r>
       <r>     7.6155     1.1052    45.2047 </r>
       <r>     7.6746     1.1987    45.2756 </r>
       <r>     7.7338     1.2599    45.3501 </r>
       <r>     7.7929     1.2379    45.4233 </r>
       <r>     7.8520     1.1602    45.4919 </r>
       <r>     7.9112     1.1183    45.5580 </r>
       <r>     7.9703     1.1712    45.6273 </r>
       <r>     8.0295     1.2669    45.7022 </r>
       <r>     8.0886     1.3016    45.7792 </r>
       <r>     8.1478     1.2401    45.8526 </r>
       <r>     8.2069     1.1419    45.9201 </r>
       <r>     8.2660     1.0861    45.9843 </r>
       <r>     8.3252     1.1011    46.0495 </r>
       <r>     8.3843     1.1546    46.1177 </r>
       <r>     8.4435     1.1971    46.1885 </r>
       <r>     8.5026     1.2083    46.2600 </r>
       <r>     8.5618     1.1888    46.3303 </r>
       <r>     8.6209     1.1261    46.3969 </r>
       <r>     8.6800     1.0129    46.4568 </r>
       <r>     8.7392     0.8930    46.5096 </r>
       <r>     8.7983     0.8465    46.5597 </r>
       <r>     8.8575     0.9214    46.6142 </r>
       <r>     8.9166     1.0885    46.6786 </r>
       <r>     8.9758     1.2533    46.7527 </r>
       <r>     9.0349     1.3106    46.8302 </r>
       <r>     9.0940     1.2184    46.9023 </r>
       <r>     9.1532     1.0408    46.9638 </r>
       <r>     9.2123     0.9105    47.0177 </r>
       <r>     9.2715     0.9156    47.0718 </r>
       <r>     9.3306     1.0132    47.1317 </r>
       <r>     9.3898     1.0748    47.1953 </r>
       <r>     9.4489     1.0343    47.2565 </r>
       <r>     9.5080     0.9610    47.3133 </r>
       <r>     9.5672     0.9668    47.3705 </r>
       <r>     9.6263     1.0580    47.4331 </r>
       <r>     9.6855     1.1199    47.4993 </r>
       <r>     9.7446     1.0537    47.5616 </r>
       <r>     9.8038     0.8868    47.6141 </r>
       <r>     9.8629     0.7201    47.6567 </r>
       <r>     9.9220     0.6110    47.6928 </r>
       <r>     9.9812     0.5549    47.7256 </r>
       <r>    10.0403     0.5353    47.7573 </r>
       <r>    10.0995     0.5346    47.7889 </r>
       <r>    10.1586     0.5235    47.8199 </r>
       <r>    10.2178     0.4873    47.8487 </r>
       <r>    10.2769     0.4460    47.8751 </r>
       <r>    10.3361     0.4152    47.8996 </r>
       <r>    10.3952     0.3707    47.9215 </r>
       <r>    10.4543     0.2865    47.9385 </r>
       <r>    10.5135     0.1904    47.9497 </r>
       <r>    10.5726     0.1451    47.9583 </r>
       <r>    10.6318     0.1704    47.9684 </r>
       <r>    10.6909     0.2104    47.9808 </r>
       <r>    10.7501     0.1965    47.9925 </r>
       <r>    10.8092     0.1220    47.9997 </r>
       <r>    10.8683     0.0383    48.0019 </r>
       <r>    10.9275    -0.0091    48.0014 </r>
       <r>    10.9866    -0.0174    48.0004 </r>
       <r>    11.0458    -0.0088    47.9999 </r>
       <r>    11.1049    -0.0011    47.9998 </r>
       <r>    11.1641     0.0014    47.9999 </r>
       <r>    11.2232     0.0012    48.0000 </r>
       <r>    11.2823     0.0006    48.0000 </r>
       <r>    11.3415     0.0002    48.0000 </r>
       <r>    11.4006     0.0000    48.0000 </r>
       <r>    11.4598     0.0000    48.0000 </r>
       <r>    11.5189     0.0000    48.0000 </r>
       <r>    11.5781     0.0000    48.0000 </r>
       <r>    11.6372     0.0000    48.0000 </r>
       <r>    11.6963     0.0000    48.0000 </r>
       <r>    11.7555     0.0000    48.0000 </r>
       <r>    11.8146     0.0000    48.0000 </r>
       <r>    11.8738     0.0000    48.0000 </r>
       <r>    11.9329     0.0000    48.0000 </r>
       <r>    11.9921     0.0000    48.0000 </r>
       <r>    12.0512     0.0000    48.0000 </r>
       <r>    12.1103     0.0000    48.0000 </r>
       <r>    12.1695     0.0000    48.0000 </r>
       <r>    12.2286     0.0000    48.0000 </r>
       <r>    12.2878     0.0000    48.0000 </r>
       <r>    12.3469     0.0000    48.0000 </r>
       <r>    12.4061     0.0000    48.0000 </r>
       <r>    12.4652     0.0000    48.0000 </r>
       <r>    12.5244     0.0000    48.0000 </r>
       <r>    12.5835     0.0000    48.0000 </r>
       <r>    12.6426     0.0000    48.0000 </r>
       <r>    12.7018     0.0000    48.0000 </r>
      </set>
     </set>
    </array>
   </total>
  </dos>
 </calculation>
 <structure name="finalpos" >
  <crystal>
   <varray name="basis" >
    <v>       4.20000000       0.00000000       0.00000000 </v>
    <v>       0.00000000       4.20000000       0.00000000 </v>
    <v>       0.00000000       0.00000000       4.20000000 </v>
   </varray>
   <i name="volume">     74.08800000 </i>
   <varray name="rec_basis" >
    <v>       0.23809524       0.00000000       0.00000000 </v>
    <v>       0.00000000       0.23809524       0.00000000 </v>
    <v>       0.00000000       0.00000000       0.23809524 </v>
   </varray>
  </crystal>
  <varray name="positions" >
   <v>       0.00000000       0.00000000       0.00000000 </v>
   <v>       0.00000000       0.50000000       0.50000000 </v>
   <v>       0.50000000       0.00000000       0.50000000 </v>
   <v>       0.50000000       0.50000000       0.00000000 </v>
  </varray>
 </structure>
</modeling>
