This job started on
Tue Jan 22 12:57:12 CET 2019
 running on   16 total cores
 distrk:  each k-point on   16 cores,    1 groups
 distr:  one band on    8 cores,    2 groups
 using from now: INCAR     
 vasp.5.4.4.18Apr17-6-g9f103f2a35 (build Apr 17 2018 18:25:23) complex          
  
 POSCAR found :  1 types and       4 ions

 ----------------------------------------------------------------------------- 
|                                                                             |
|  ADVICE TO THIS USER RUNNING 'VASP/VAMP'   (HEAR YOUR MASTER'S VOICE ...):  |
|                                                                             |
|      You enforced a specific xc-type in the INCAR file,                     |
|      a different type was found on the POTCAR file                          |
|          I HOPE YOU KNOW, WHAT YOU ARE  DOING                               |
|                                                                             |
 ----------------------------------------------------------------------------- 

 LDA part: xc-table for Ceperly-Alder, standard interpolation
 POSCAR found :  1 types and       4 ions
 POSCAR, INCAR and KPOINTS ok, starting setup
 FFT: planning ...
 WAVECAR not read
 entering main loop
       N       E                     dE             d eps       ncg     rms          rms(c)
DAV:   1     0.451690655410E+03    0.45169E+03   -0.17341E+04  5768   0.152E+03
DAV:   2     0.326237956244E+01   -0.44843E+03   -0.43582E+03  5768   0.525E+02
DAV:   3    -0.248430726748E+02   -0.28105E+02   -0.27283E+02  8024   0.122E+02
DAV:   4    -0.256353733017E+02   -0.79230E+00   -0.78814E+00  6160   0.261E+01
DAV:   5    -0.256559946789E+02   -0.20621E-01   -0.20615E-01  6984   0.285E+00    0.764E+00
DAV:   6    -0.242362247334E+02    0.14198E+01   -0.31109E+00  6880   0.200E+01    0.239E+00
DAV:   7    -0.240720956364E+02    0.16413E+00   -0.48916E-01  8416   0.719E+00    0.507E-01
DAV:   8    -0.240544301648E+02    0.17665E-01   -0.20624E-02  6048   0.182E+00    0.102E-01
DAV:   9    -0.240541174562E+02    0.31271E-03   -0.18290E-03  7552   0.469E-01    0.230E-02
DAV:  10    -0.240541387019E+02   -0.21246E-04   -0.48752E-05  6440   0.396E-02    0.352E-03
DAV:  11    -0.240541414728E+02   -0.27708E-05   -0.14297E-06  4432   0.120E-02    0.693E-04
DAV:  12    -0.240541413623E+02    0.11052E-06   -0.23714E-07  3192   0.420E-03
   1 F= -.24054141E+02 E0= -.24052903E+02  d E =-.240541E+02
 curvature:   0.00 expect dE= 0.000E+00 dE for cont linesearch  0.000E+00
 trial: gam= 0.00000 g(F)=  0.747E-63 g(S)=  0.000E+00 ort = 0.000E+00 (trialstep = 0.100E+01)
 search vector abs. value=  0.100E-09
 reached required accuracy - stopping structural energy minimisation
 writing wavefunctions
This job finished on
Tue Jan 22 12:57:32 CET 2019
