<?xml version="1.0" encoding="ISO-8859-1"?>
<modeling>
 <generator>
  <i name="program" type="string">vasp </i>
  <i name="version" type="string">5.4.4.18Apr17-6-g9f103f2a35  </i>
  <i name="subversion" type="string">(build Apr 17 2018 18:25:23) complex            parallel </i>
  <i name="platform" type="string">LinuxIFC </i>
  <i name="date" type="string">2019 01 22 </i>
  <i name="time" type="string">12:57:13 </i>
 </generator>
 <incar>
  <i type="string" name="SYSTEM"> Pt bulk calculation</i>
  <i type="int" name="ISTART">     0</i>
  <i type="string" name="PREC">normal</i>
  <i type="string" name="ALGO"> NORMAL</i>
  <i type="int" name="ICHARG">     2</i>
  <i type="int" name="INIWAV">     1</i>
  <i type="int" name="NELMIN">    10</i>
  <i type="int" name="IBRION">     2</i>
  <i name="EDIFF">      0.00000100</i>
  <i name="EDIFFG">     -0.02000000</i>
  <i type="int" name="NSW">    10</i>
  <i name="ENCUT">    450.00000000</i>
  <i name="POTIM">      0.20000000</i>
  <i type="int" name="ISMEAR">     2</i>
  <i name="SIGMA">      0.20000000</i>
  <v type="int" name="KPOINT_BSE">    -1     0     0     0</v>
  <i type="string" name="GGA"> 91</i>
 </incar>
 <structure name="primitive_cell" >
  <crystal>
   <varray name="basis" >
    <v>       1.94000000       1.94000000      -0.00000000 </v>
    <v>       1.94000000       0.00000000      -1.94000000 </v>
    <v>       0.00000000       1.94000000      -1.94000000 </v>
   </varray>
   <i name="volume">     14.60276800 </i>
   <varray name="rec_basis" >
    <v>       0.25773196       0.25773196       0.25773196 </v>
    <v>       0.25773196      -0.25773196      -0.25773196 </v>
    <v>      -0.25773196       0.25773196      -0.25773196 </v>
   </varray>
  </crystal>
  <varray name="positions" >
   <v>       0.00000000       0.00000000       0.00000000 </v>
  </varray>
 </structure>
 <varray name="primitive_index" >
  <v type="int" >        1 </v>
 </varray>
 <kpoints>
  <generation param="Monkhorst-Pack">
   <v type="int" name="divisions">      16       16       16 </v>
   <v name="usershift">      0.00000000       0.00000000       0.00000000 </v>
   <v name="genvec1">      0.06250000       0.00000000       0.00000000 </v>
   <v name="genvec2">      0.00000000       0.06250000       0.00000000 </v>
   <v name="genvec3">      0.00000000       0.00000000       0.06250000 </v>
   <v name="shift">      0.50000000       0.50000000       0.50000000 </v>
  </generation>
  <varray name="kpointlist" >
   <v>       0.03125000       0.03125000       0.03125000 </v>
   <v>       0.09375000       0.03125000       0.03125000 </v>
   <v>       0.15625000       0.03125000       0.03125000 </v>
   <v>       0.21875000       0.03125000       0.03125000 </v>
   <v>       0.28125000       0.03125000       0.03125000 </v>
   <v>       0.34375000       0.03125000       0.03125000 </v>
   <v>       0.40625000       0.03125000       0.03125000 </v>
   <v>       0.46875000       0.03125000       0.03125000 </v>
   <v>       0.09375000       0.09375000       0.03125000 </v>
   <v>       0.15625000       0.09375000       0.03125000 </v>
   <v>       0.21875000       0.09375000       0.03125000 </v>
   <v>       0.28125000       0.09375000       0.03125000 </v>
   <v>       0.34375000       0.09375000       0.03125000 </v>
   <v>       0.40625000       0.09375000       0.03125000 </v>
   <v>       0.46875000       0.09375000       0.03125000 </v>
   <v>       0.15625000       0.15625000       0.03125000 </v>
   <v>       0.21875000       0.15625000       0.03125000 </v>
   <v>       0.28125000       0.15625000       0.03125000 </v>
   <v>       0.34375000       0.15625000       0.03125000 </v>
   <v>       0.40625000       0.15625000       0.03125000 </v>
   <v>       0.46875000       0.15625000       0.03125000 </v>
   <v>       0.21875000       0.21875000       0.03125000 </v>
   <v>       0.28125000       0.21875000       0.03125000 </v>
   <v>       0.34375000       0.21875000       0.03125000 </v>
   <v>       0.40625000       0.21875000       0.03125000 </v>
   <v>       0.46875000       0.21875000       0.03125000 </v>
   <v>       0.28125000       0.28125000       0.03125000 </v>
   <v>       0.34375000       0.28125000       0.03125000 </v>
   <v>       0.40625000       0.28125000       0.03125000 </v>
   <v>       0.46875000       0.28125000       0.03125000 </v>
   <v>       0.34375000       0.34375000       0.03125000 </v>
   <v>       0.40625000       0.34375000       0.03125000 </v>
   <v>       0.46875000       0.34375000       0.03125000 </v>
   <v>       0.40625000       0.40625000       0.03125000 </v>
   <v>       0.46875000       0.40625000       0.03125000 </v>
   <v>       0.46875000       0.46875000       0.03125000 </v>
   <v>       0.09375000       0.09375000       0.09375000 </v>
   <v>       0.15625000       0.09375000       0.09375000 </v>
   <v>       0.21875000       0.09375000       0.09375000 </v>
   <v>       0.28125000       0.09375000       0.09375000 </v>
   <v>       0.34375000       0.09375000       0.09375000 </v>
   <v>       0.40625000       0.09375000       0.09375000 </v>
   <v>       0.46875000       0.09375000       0.09375000 </v>
   <v>       0.15625000       0.15625000       0.09375000 </v>
   <v>       0.21875000       0.15625000       0.09375000 </v>
   <v>       0.28125000       0.15625000       0.09375000 </v>
   <v>       0.34375000       0.15625000       0.09375000 </v>
   <v>       0.40625000       0.15625000       0.09375000 </v>
   <v>       0.46875000       0.15625000       0.09375000 </v>
   <v>       0.21875000       0.21875000       0.09375000 </v>
   <v>       0.28125000       0.21875000       0.09375000 </v>
   <v>       0.34375000       0.21875000       0.09375000 </v>
   <v>       0.40625000       0.21875000       0.09375000 </v>
   <v>       0.46875000       0.21875000       0.09375000 </v>
   <v>       0.28125000       0.28125000       0.09375000 </v>
   <v>       0.34375000       0.28125000       0.09375000 </v>
   <v>       0.40625000       0.28125000       0.09375000 </v>
   <v>       0.46875000       0.28125000       0.09375000 </v>
   <v>       0.34375000       0.34375000       0.09375000 </v>
   <v>       0.40625000       0.34375000       0.09375000 </v>
   <v>       0.46875000       0.34375000       0.09375000 </v>
   <v>       0.40625000       0.40625000       0.09375000 </v>
   <v>       0.46875000       0.40625000       0.09375000 </v>
   <v>       0.46875000       0.46875000       0.09375000 </v>
   <v>       0.15625000       0.15625000       0.15625000 </v>
   <v>       0.21875000       0.15625000       0.15625000 </v>
   <v>       0.28125000       0.15625000       0.15625000 </v>
   <v>       0.34375000       0.15625000       0.15625000 </v>
   <v>       0.40625000       0.15625000       0.15625000 </v>
   <v>       0.46875000       0.15625000       0.15625000 </v>
   <v>       0.21875000       0.21875000       0.15625000 </v>
   <v>       0.28125000       0.21875000       0.15625000 </v>
   <v>       0.34375000       0.21875000       0.15625000 </v>
   <v>       0.40625000       0.21875000       0.15625000 </v>
   <v>       0.46875000       0.21875000       0.15625000 </v>
   <v>       0.28125000       0.28125000       0.15625000 </v>
   <v>       0.34375000       0.28125000       0.15625000 </v>
   <v>       0.40625000       0.28125000       0.15625000 </v>
   <v>       0.46875000       0.28125000       0.15625000 </v>
   <v>       0.34375000       0.34375000       0.15625000 </v>
   <v>       0.40625000       0.34375000       0.15625000 </v>
   <v>       0.46875000       0.34375000       0.15625000 </v>
   <v>       0.40625000       0.40625000       0.15625000 </v>
   <v>       0.46875000       0.40625000       0.15625000 </v>
   <v>       0.46875000       0.46875000       0.15625000 </v>
   <v>       0.21875000       0.21875000       0.21875000 </v>
   <v>       0.28125000       0.21875000       0.21875000 </v>
   <v>       0.34375000       0.21875000       0.21875000 </v>
   <v>       0.40625000       0.21875000       0.21875000 </v>
   <v>       0.46875000       0.21875000       0.21875000 </v>
   <v>       0.28125000       0.28125000       0.21875000 </v>
   <v>       0.34375000       0.28125000       0.21875000 </v>
   <v>       0.40625000       0.28125000       0.21875000 </v>
   <v>       0.46875000       0.28125000       0.21875000 </v>
   <v>       0.34375000       0.34375000       0.21875000 </v>
   <v>       0.40625000       0.34375000       0.21875000 </v>
   <v>       0.46875000       0.34375000       0.21875000 </v>
   <v>       0.40625000       0.40625000       0.21875000 </v>
   <v>       0.46875000       0.40625000       0.21875000 </v>
   <v>       0.46875000       0.46875000       0.21875000 </v>
   <v>       0.28125000       0.28125000       0.28125000 </v>
   <v>       0.34375000       0.28125000       0.28125000 </v>
   <v>       0.40625000       0.28125000       0.28125000 </v>
   <v>       0.46875000       0.28125000       0.28125000 </v>
   <v>       0.34375000       0.34375000       0.28125000 </v>
   <v>       0.40625000       0.34375000       0.28125000 </v>
   <v>       0.46875000       0.34375000       0.28125000 </v>
   <v>       0.40625000       0.40625000       0.28125000 </v>
   <v>       0.46875000       0.40625000       0.28125000 </v>
   <v>       0.46875000       0.46875000       0.28125000 </v>
   <v>       0.34375000       0.34375000       0.34375000 </v>
   <v>       0.40625000       0.34375000       0.34375000 </v>
   <v>       0.46875000       0.34375000       0.34375000 </v>
   <v>       0.40625000       0.40625000       0.34375000 </v>
   <v>       0.46875000       0.40625000       0.34375000 </v>
   <v>       0.46875000       0.46875000       0.34375000 </v>
   <v>       0.40625000       0.40625000       0.40625000 </v>
   <v>       0.46875000       0.40625000       0.40625000 </v>
   <v>       0.46875000       0.46875000       0.40625000 </v>
   <v>       0.46875000       0.46875000       0.46875000 </v>
  </varray>
  <varray name="weights" >
   <v>       0.00195312 </v>
   <v>       0.00585938 </v>
   <v>       0.00585938 </v>
   <v>       0.00585938 </v>
   <v>       0.00585938 </v>
   <v>       0.00585938 </v>
   <v>       0.00585938 </v>
   <v>       0.00585938 </v>
   <v>       0.00585938 </v>
   <v>       0.01171875 </v>
   <v>       0.01171875 </v>
   <v>       0.01171875 </v>
   <v>       0.01171875 </v>
   <v>       0.01171875 </v>
   <v>       0.01171875 </v>
   <v>       0.00585938 </v>
   <v>       0.01171875 </v>
   <v>       0.01171875 </v>
   <v>       0.01171875 </v>
   <v>       0.01171875 </v>
   <v>       0.01171875 </v>
   <v>       0.00585938 </v>
   <v>       0.01171875 </v>
   <v>       0.01171875 </v>
   <v>       0.01171875 </v>
   <v>       0.01171875 </v>
   <v>       0.00585938 </v>
   <v>       0.01171875 </v>
   <v>       0.01171875 </v>
   <v>       0.01171875 </v>
   <v>       0.00585938 </v>
   <v>       0.01171875 </v>
   <v>       0.01171875 </v>
   <v>       0.00585938 </v>
   <v>       0.01171875 </v>
   <v>       0.00585938 </v>
   <v>       0.00195312 </v>
   <v>       0.00585938 </v>
   <v>       0.00585938 </v>
   <v>       0.00585938 </v>
   <v>       0.00585938 </v>
   <v>       0.00585938 </v>
   <v>       0.00585938 </v>
   <v>       0.00585938 </v>
   <v>       0.01171875 </v>
   <v>       0.01171875 </v>
   <v>       0.01171875 </v>
   <v>       0.01171875 </v>
   <v>       0.01171875 </v>
   <v>       0.00585938 </v>
   <v>       0.01171875 </v>
   <v>       0.01171875 </v>
   <v>       0.01171875 </v>
   <v>       0.01171875 </v>
   <v>       0.00585938 </v>
   <v>       0.01171875 </v>
   <v>       0.01171875 </v>
   <v>       0.01171875 </v>
   <v>       0.00585938 </v>
   <v>       0.01171875 </v>
   <v>       0.01171875 </v>
   <v>       0.00585938 </v>
   <v>       0.01171875 </v>
   <v>       0.00585938 </v>
   <v>       0.00195312 </v>
   <v>       0.00585938 </v>
   <v>       0.00585938 </v>
   <v>       0.00585938 </v>
   <v>       0.00585938 </v>
   <v>       0.00585938 </v>
   <v>       0.00585938 </v>
   <v>       0.01171875 </v>
   <v>       0.01171875 </v>
   <v>       0.01171875 </v>
   <v>       0.01171875 </v>
   <v>       0.00585938 </v>
   <v>       0.01171875 </v>
   <v>       0.01171875 </v>
   <v>       0.01171875 </v>
   <v>       0.00585938 </v>
   <v>       0.01171875 </v>
   <v>       0.01171875 </v>
   <v>       0.00585938 </v>
   <v>       0.01171875 </v>
   <v>       0.00585938 </v>
   <v>       0.00195312 </v>
   <v>       0.00585938 </v>
   <v>       0.00585938 </v>
   <v>       0.00585938 </v>
   <v>       0.00585938 </v>
   <v>       0.00585938 </v>
   <v>       0.01171875 </v>
   <v>       0.01171875 </v>
   <v>       0.01171875 </v>
   <v>       0.00585938 </v>
   <v>       0.01171875 </v>
   <v>       0.01171875 </v>
   <v>       0.00585938 </v>
   <v>       0.01171875 </v>
   <v>       0.00585938 </v>
   <v>       0.00195312 </v>
   <v>       0.00585938 </v>
   <v>       0.00585938 </v>
   <v>       0.00585938 </v>
   <v>       0.00585938 </v>
   <v>       0.01171875 </v>
   <v>       0.01171875 </v>
   <v>       0.00585938 </v>
   <v>       0.01171875 </v>
   <v>       0.00585938 </v>
   <v>       0.00195312 </v>
   <v>       0.00585938 </v>
   <v>       0.00585938 </v>
   <v>       0.00585938 </v>
   <v>       0.01171875 </v>
   <v>       0.00585938 </v>
   <v>       0.00195312 </v>
   <v>       0.00585938 </v>
   <v>       0.00585938 </v>
   <v>       0.00195312 </v>
  </varray>
 </kpoints>
 <parameters>
  <separator name="general" >
   <i type="string" name="SYSTEM">Pt bulk calculation</i>
   <i type="logical" name="LCOMPAT"> F  </i>
  </separator>
  <separator name="electronic" >
   <i type="string" name="PREC">normal</i>
   <i name="ENMAX">    450.00000000</i>
   <i name="ENAUG">    358.96600000</i>
   <i name="EDIFF">      0.00000100</i>
   <i type="int" name="IALGO">    38</i>
   <i type="int" name="IWAVPR">    11</i>
   <i type="int" name="NBANDS">    24</i>
   <i name="NELECT">     40.00000000</i>
   <i type="int" name="TURBO">     0</i>
   <i type="int" name="IRESTART">     0</i>
   <i type="int" name="NREBOOT">     0</i>
   <i type="int" name="NMIN">     0</i>
   <i name="EREF">      0.00000000</i>
   <separator name="electronic smearing" >
    <i type="int" name="ISMEAR">     2</i>
    <i name="SIGMA">      0.20000000</i>
    <i name="KSPACING">      0.50000000</i>
    <i type="logical" name="KGAMMA"> T  </i>
   </separator>
   <separator name="electronic projectors" >
    <i type="logical" name="LREAL"> F  </i>
    <v name="ROPT">      0.00000000</v>
    <i type="int" name="LMAXPAW">  -100</i>
    <i type="int" name="LMAXMIX">     2</i>
    <i type="logical" name="NLSPLINE"> F  </i>
   </separator>
   <separator name="electronic startup" >
    <i type="int" name="ISTART">     0</i>
    <i type="int" name="ICHARG">     2</i>
    <i type="int" name="INIWAV">     1</i>
   </separator>
   <separator name="electronic spin" >
    <i type="int" name="ISPIN">     1</i>
    <i type="logical" name="LNONCOLLINEAR"> F  </i>
    <v name="MAGMOM">      1.00000000      1.00000000      1.00000000      1.00000000</v>
    <i name="NUPDOWN">     -1.00000000</i>
    <i type="logical" name="LSORBIT"> F  </i>
    <v name="SAXIS">      0.00000000      0.00000000      1.00000000</v>
    <i type="logical" name="LSPIRAL"> F  </i>
    <v name="QSPIRAL">      0.00000000      0.00000000      0.00000000</v>
    <i type="logical" name="LZEROZ"> F  </i>
   </separator>
   <separator name="electronic exchange-correlation" >
    <i type="logical" name="LASPH"> F  </i>
    <i type="logical" name="LMETAGGA"> F  </i>
   </separator>
   <separator name="electronic convergence" >
    <i type="int" name="NELM">    60</i>
    <i type="int" name="NELMDL">    -5</i>
    <i type="int" name="NELMIN">    10</i>
    <i name="ENINI">    450.00000000</i>
    <separator name="electronic convergence detail" >
     <i type="logical" name="LDIAG"> T  </i>
     <i type="logical" name="LSUBROT"> F  </i>
     <i name="WEIMIN">      0.00100000</i>
     <i name="EBREAK">      0.00000001</i>
     <i name="DEPER">      0.30000000</i>
     <i type="int" name="NRMM">     4</i>
     <i name="TIME">      0.40000000</i>
    </separator>
   </separator>
   <separator name="electronic mixer" >
    <i name="AMIX">      0.40000000</i>
    <i name="BMIX">      1.00000000</i>
    <i name="AMIN">      0.10000000</i>
    <i name="AMIX_MAG">      1.60000000</i>
    <i name="BMIX_MAG">      1.00000000</i>
    <separator name="electronic mixer details" >
     <i type="int" name="IMIX">     4</i>
     <i type="logical" name="MIXFIRST"> F  </i>
     <i type="int" name="MAXMIX">   -45</i>
     <i name="WC">    100.00000000</i>
     <i type="int" name="INIMIX">     1</i>
     <i type="int" name="MIXPRE">     1</i>
     <i type="int" name="MREMOVE">     5</i>
    </separator>
   </separator>
   <separator name="electronic dipolcorrection" >
    <i type="logical" name="LDIPOL"> F  </i>
    <i type="logical" name="LMONO"> F  </i>
    <i type="int" name="IDIPOL">     0</i>
    <i name="EPSILON">      1.00000000</i>
    <v name="DIPOL">   -100.00000000   -100.00000000   -100.00000000</v>
    <i name="EFIELD">      0.00000000</i>
   </separator>
  </separator>
  <separator name="grids" >
   <i type="int" name="NGX">    20</i>
   <i type="int" name="NGY">    20</i>
   <i type="int" name="NGZ">    20</i>
   <i type="int" name="NGXF">    40</i>
   <i type="int" name="NGYF">    40</i>
   <i type="int" name="NGZF">    40</i>
   <i type="logical" name="ADDGRID"> F  </i>
  </separator>
  <separator name="ionic" >
   <i type="int" name="NSW">    10</i>
   <i type="int" name="IBRION">     2</i>
   <i type="int" name="MDALGO">     0</i>
   <i type="int" name="ISIF">     2</i>
   <i name="PSTRESS">      0.00000000</i>
   <i name="EDIFFG">     -0.02000000</i>
   <i type="int" name="NFREE">     1</i>
   <i name="POTIM">      0.20000000</i>
   <i name="SMASS">     -3.00000000</i>
   <i name="SCALEE">      1.00000000</i>
  </separator>
  <separator name="ionic md" >
   <i name="TEBEG">      0.00010000</i>
   <i name="TEEND">      0.00010000</i>
   <i type="int" name="NBLOCK">     1</i>
   <i type="int" name="KBLOCK">    10</i>
   <i type="int" name="NPACO">   256</i>
   <i name="APACO">     16.00000000</i>
  </separator>
  <separator name="symmetry" >
   <i type="int" name="ISYM">     2</i>
   <i name="SYMPREC">      0.00001000</i>
  </separator>
  <separator name="dos" >
   <i type="int" name="LORBIT">     0</i>
   <v name="RWIGS">     -1.00000000</v>
   <i type="int" name="NEDOS">   301</i>
   <i name="EMIN">     10.00000000</i>
   <i name="EMAX">    -10.00000000</i>
   <i name="EFERMI">      0.00000000</i>
  </separator>
  <separator name="writing" >
   <i type="int" name="NWRITE">     2</i>
   <i type="logical" name="LWAVE"> T  </i>
   <i type="logical" name="LDOWNSAMPLE"> F  </i>
   <i type="logical" name="LCHARG"> T  </i>
   <i type="logical" name="LPARD"> F  </i>
   <i type="logical" name="LVTOT"> F  </i>
   <i type="logical" name="LVHAR"> F  </i>
   <i type="logical" name="LELF"> F  </i>
   <i type="logical" name="LOPTICS"> F  </i>
   <v name="STM">      0.00000000      0.00000000      0.00000000      0.00000000      0.00000000      0.00000000      0.00000000</v>
  </separator>
  <separator name="performance" >
   <i type="int" name="NPAR">     2</i>
   <i type="int" name="NSIM">     4</i>
   <i type="int" name="NBLK">    -1</i>
   <i type="logical" name="LPLANE"> T  </i>
   <i type="logical" name="LSCALAPACK"> F  </i>
   <i type="logical" name="LSCAAWARE"> F  </i>
   <i type="logical" name="LSCALU"> F  </i>
   <i type="logical" name="LASYNC"> F  </i>
   <i type="logical" name="LORBITALREAL"> F  </i>
  </separator>
  <separator name="miscellaneous" >
   <i type="int" name="IDIOT">     3</i>
   <i type="int" name="ISPECIAL">     0</i>
   <i type="logical" name="LMUSIC"> F  </i>
   <v name="POMASS">    195.08000000</v>
   <v name="DARWINR">      0.00000000</v>
   <v name="DARWINV">      1.00000000</v>
   <i type="logical" name="LCORR"> T  </i>
  </separator>
  <i type="logical" name="GGA_COMPAT"> T  </i>
  <i type="logical" name="LBERRY"> F  </i>
  <i type="int" name="ICORELEVEL">     0</i>
  <i type="logical" name="LDAU"> F  </i>
  <i type="int" name="I_CONSTRAINED_M">     0</i>
  <separator name="electronic exchange-correlation" >
   <i type="string" name="GGA">91</i>
   <i type="int" name="VOSKOWN">     0</i>
   <i type="logical" name="LHFCALC"> F  </i>
   <i type="string" name="PRECFOCK"></i>
   <i type="logical" name="LSYMGRAD"> F  </i>
   <i type="logical" name="LHFONE"> F  </i>
   <i type="logical" name="LRHFCALC"> F  </i>
   <i type="logical" name="LTHOMAS"> F  </i>
   <i type="logical" name="LMODELHF"> F  </i>
   <i name="ENCUT4O">     -1.00000000</i>
   <i type="int" name="EXXOEP">     0</i>
   <i type="int" name="FOURORBIT">     0</i>
   <i name="AEXX">      0.00000000</i>
   <i name="HFALPHA">      0.00000000</i>
   <i name="MCALPHA">      0.00000000</i>
   <i name="ALDAX">      1.00000000</i>
   <i name="AGGAX">      1.00000000</i>
   <i name="ALDAC">      1.00000000</i>
   <i name="AGGAC">      1.00000000</i>
   <i type="int" name="NKREDX">     1</i>
   <i type="int" name="NKREDY">     1</i>
   <i type="int" name="NKREDZ">     1</i>
   <i type="logical" name="SHIFTRED"> F  </i>
   <i type="logical" name="ODDONLY"> F  </i>
   <i type="logical" name="EVENONLY"> F  </i>
   <i type="int" name="LMAXFOCK">     0</i>
   <i type="int" name="NMAXFOCKAE">     0</i>
   <i type="logical" name="LFOCKAEDFT"> F  </i>
   <i name="HFSCREEN">      0.00000000</i>
   <i name="HFSCREENC">      0.00000000</i>
   <i type="int" name="NBANDSGWLOW">     0</i>
  </separator>
  <separator name="vdW DFT" >
   <i type="logical" name="LUSE_VDW"> F  </i>
   <i name="Zab_VDW">     -0.84910000</i>
   <i name="PARAM1">      0.12340000</i>
   <i name="PARAM2">      1.00000000</i>
   <i name="PARAM3">      0.00000000</i>
  </separator>
  <separator name="model GW" >
   <i type="int" name="MODEL_GW">     0</i>
   <i name="MODEL_EPS0">      8.76166080</i>
   <i name="MODEL_ALPHA">      1.00000000</i>
  </separator>
  <separator name="linear response parameters" >
   <i type="logical" name="LEPSILON"> F  </i>
   <i type="logical" name="LRPA"> F  </i>
   <i type="logical" name="LNABLA"> F  </i>
   <i type="logical" name="LVEL"> F  </i>
   <i type="int" name="KINTER">     0</i>
   <i name="CSHIFT">      0.10000000</i>
   <i name="OMEGAMAX">     -1.00000000</i>
   <i name="DEG_THRESHOLD">      0.00200000</i>
   <i name="RTIME">     -0.10000000</i>
   <i name="WPLASMAI">      0.00000000</i>
   <v name="DFIELD">      0.00000000      0.00000000      0.00000000</v>
   <v name="WPLASMA">      0.00000000      0.00000000      0.00000000      0.00000000      0.00000000      0.00000000      0.00000000      0.00000000      0.00000000</v>
  </separator>
  <separator name="orbital magnetization" >
   <i type="logical" name="NUCIND"> F  </i>
   <v name="MAGPOS">      0.00000000      0.00000000      0.00000000</v>
   <i type="logical" name="LNICSALL"> T  </i>
   <i type="logical" name="ORBITALMAG"> F  </i>
   <i type="logical" name="LMAGBLOCH"> F  </i>
   <i type="logical" name="LCHIMAG"> F  </i>
   <i type="logical" name="LGAUGE"> T  </i>
   <i type="int" name="MAGATOM">     0</i>
   <v name="MAGDIPOL">      0.00000000      0.00000000      0.00000000</v>
   <v name="AVECCONST">      0.00000000      0.00000000      0.00000000</v>
  </separator>
  <separator name="response functions" >
   <i type="logical" name="LADDER"> F  </i>
   <i type="logical" name="LRPAFORCE"> F  </i>
   <i type="logical" name="LFXC"> F  </i>
   <i type="logical" name="LHARTREE"> T  </i>
   <i type="int" name="IBSE">     0</i>
   <v type="int" name="KPOINT">    -1     0     0     0</v>
   <i type="logical" name="LTCTE"> F  </i>
   <i type="logical" name="LTETE"> F  </i>
   <i type="logical" name="LTRIPLET"> F  </i>
   <i type="logical" name="LFXCEPS"> F  </i>
   <i type="logical" name="LFXHEG"> F  </i>
   <i type="int" name="NATURALO">     2</i>
   <i type="logical" name="L2ORDER"> F  </i>
   <i type="logical" name="LMP2LT"> F  </i>
   <i type="logical" name="LUSEW"> F  </i>
   <i name="ENCUTGW">     -2.00000000</i>
   <i name="ENCUTGWSOFT">     -2.00000000</i>
   <i name="ENCUTLF">     -1.00000000</i>
   <i type="int" name="LMAXMP2">    -1</i>
   <i name="SCISSOR">      0.00000000</i>
   <i type="int" name="NOMEGA">     0</i>
   <i type="int" name="NOMEGAR">     0</i>
   <i type="int" name="NBANDSGW">    -1</i>
   <i type="int" name="NBANDSO">    -1</i>
   <i type="int" name="NBANDSV">    -1</i>
   <i type="int" name="NELM">     1</i>
   <i type="int" name="NELMHF">     1</i>
   <i type="int" name="DIM">     3</i>
   <i type="int" name="ANTIRES">     0</i>
   <i name="OMEGAMAX">    -30.00000000</i>
   <i name="OMEGAMIN">    -30.00000000</i>
   <i name="OMEGATL">   -200.00000000</i>
   <i type="int" name="OMEGAGRID">   140</i>
   <i name="CSHIFT">     -0.10000000</i>
   <i type="logical" name="SELFENERGY"> F  </i>
   <i type="logical" name="LSPECTRAL"> F  </i>
   <i type="logical" name="LSPECTRALGW"> F  </i>
   <i type="logical" name="LSINGLES"> F  </i>
   <i type="logical" name="LFERMIGW"> F  </i>
   <i type="logical" name="ODDONLYGW"> F  </i>
   <i type="logical" name="EVENONLYGW"> F  </i>
   <i type="int" name="NKREDLFX">     1</i>
   <i type="int" name="NKREDLFY">     1</i>
   <i type="int" name="NKREDLFZ">     1</i>
   <i type="int" name="MAXMEM">  2800</i>
   <i type="int" name="TELESCOPE">     0</i>
   <i type="int" name="TAUPAR">     1</i>
   <i type="int" name="OMEGAPAR">    -1</i>
   <i name="LAMBDA">      1.00000000</i>
  </separator>
  <separator name="External order field" >
   <i name="OFIELD_KAPPA">      0.00000000</i>
   <v name="OFIELD_K">      0.00000000      0.00000000      0.00000000</v>
   <i name="OFIELD_Q6_NEAR">      0.00000000</i>
   <i name="OFIELD_Q6_FAR">      0.00000000</i>
   <i name="OFIELD_A">      0.00000000</i>
  </separator>
 </parameters>
 <atominfo>
  <atoms>       4 </atoms>
  <types>       1 </types>
  <array name="atoms" >
   <dimension dim="1">ion</dimension>
   <field type="string">element</field>
   <field type="int">atomtype</field>
   <set>
    <rc><c>Pt</c><c>   1</c></rc>
    <rc><c>Pt</c><c>   1</c></rc>
    <rc><c>Pt</c><c>   1</c></rc>
    <rc><c>Pt</c><c>   1</c></rc>
   </set>
  </array>
  <array name="atomtypes" >
   <dimension dim="1">type</dimension>
   <field type="int">atomspertype</field>
   <field type="string">element</field>
   <field>mass</field>
   <field>valence</field>
   <field type="string">pseudopotential</field>
   <set>
    <rc><c>   4</c><c>Pt</c><c>    195.08000000</c><c>     10.00000000</c><c> PAW_PBE Pt 05Jan2001                   </c></rc>
   </set>
  </array>
 </atominfo>
 <structure name="initialpos" >
  <crystal>
   <varray name="basis" >
    <v>       3.88000000       0.00000000       0.00000000 </v>
    <v>       0.00000000       3.88000000       0.00000000 </v>
    <v>       0.00000000       0.00000000       3.88000000 </v>
   </varray>
   <i name="volume">     58.41107200 </i>
   <varray name="rec_basis" >
    <v>       0.25773196       0.00000000       0.00000000 </v>
    <v>       0.00000000       0.25773196       0.00000000 </v>
    <v>       0.00000000       0.00000000       0.25773196 </v>
   </varray>
  </crystal>
  <varray name="positions" >
   <v>       0.00000000       0.00000000       0.00000000 </v>
   <v>       0.00000000       0.50000000       0.50000000 </v>
   <v>       0.50000000       0.00000000       0.50000000 </v>
   <v>       0.50000000       0.50000000       0.00000000 </v>
  </varray>
 </structure>
 <calculation>
  <scstep>
   <time name="dav">    1.00    1.00</time>
   <time name="total">    1.02    1.10</time>
   <energy>
    <i name="alphaZ">    398.54164635 </i>
    <i name="ewald">  -3403.14632769 </i>
    <i name="hartreedc">   -274.89293791 </i>
    <i name="XCdc">     14.76707094 </i>
    <i name="pawpsdc">   2293.79710215 </i>
    <i name="pawaedc">  -2181.03440391 </i>
    <i name="eentropy">     -0.00029739 </i>
    <i name="bandstr">    688.12065238 </i>
    <i name="atom">   2915.53815049 </i>
    <i name="e_fr_energy">    451.69065541 </i>
    <i name="e_wo_entrp">    451.69095280 </i>
    <i name="e_0_energy">    451.69072976 </i>
   </energy>
  </scstep>
  <scstep>
   <time name="dav">    0.94    0.94</time>
   <time name="total">    0.95    0.95</time>
   <energy>
    <i name="e_fr_energy">      3.26237956 </i>
    <i name="e_wo_entrp">      3.26053659 </i>
    <i name="e_0_energy">      3.26191882 </i>
   </energy>
  </scstep>
  <scstep>
   <time name="dav">    1.27    1.27</time>
   <time name="total">    1.28    1.28</time>
   <energy>
    <i name="e_fr_energy">    -24.84307267 </i>
    <i name="e_wo_entrp">    -24.84289551 </i>
    <i name="e_0_energy">    -24.84302838 </i>
   </energy>
  </scstep>
  <scstep>
   <time name="dav">    0.97    0.97</time>
   <time name="total">    0.98    0.98</time>
   <energy>
    <i name="e_fr_energy">    -25.63537330 </i>
    <i name="e_wo_entrp">    -25.63561713 </i>
    <i name="e_0_energy">    -25.63543426 </i>
   </energy>
  </scstep>
  <scstep>
   <time name="dav">    1.09    1.09</time>
   <time name="total">    1.16    1.16</time>
   <energy>
    <i name="e_fr_energy">    -25.65599468 </i>
    <i name="e_wo_entrp">    -25.65627336 </i>
    <i name="e_0_energy">    -25.65606435 </i>
   </energy>
  </scstep>
  <scstep>
   <time name="dav">    1.07    1.07</time>
   <time name="total">    1.14    1.14</time>
   <energy>
    <i name="e_fr_energy">    -24.23622473 </i>
    <i name="e_wo_entrp">    -24.23165435 </i>
    <i name="e_0_energy">    -24.23508214 </i>
   </energy>
  </scstep>
  <scstep>
   <time name="dav">    1.25    1.25</time>
   <time name="total">    1.32    1.32</time>
   <energy>
    <i name="e_fr_energy">    -24.07209564 </i>
    <i name="e_wo_entrp">    -24.06703370 </i>
    <i name="e_0_energy">    -24.07083015 </i>
   </energy>
  </scstep>
  <scstep>
   <time name="dav">    0.94    0.94</time>
   <time name="total">    1.01    1.01</time>
   <energy>
    <i name="e_fr_energy">    -24.05443016 </i>
    <i name="e_wo_entrp">    -24.04948981 </i>
    <i name="e_0_energy">    -24.05319508 </i>
   </energy>
  </scstep>
  <scstep>
   <time name="dav">    1.14    1.14</time>
   <time name="total">    1.21    1.21</time>
   <energy>
    <i name="e_fr_energy">    -24.05411746 </i>
    <i name="e_wo_entrp">    -24.04915297 </i>
    <i name="e_0_energy">    -24.05287633 </i>
   </energy>
  </scstep>
  <scstep>
   <time name="dav">    0.99    0.99</time>
   <time name="total">    1.06    1.06</time>
   <energy>
    <i name="e_fr_energy">    -24.05413870 </i>
    <i name="e_wo_entrp">    -24.04918440 </i>
    <i name="e_0_energy">    -24.05290013 </i>
   </energy>
  </scstep>
  <scstep>
   <time name="dav">    0.77    0.77</time>
   <time name="total">    0.85    0.85</time>
   <energy>
    <i name="e_fr_energy">    -24.05414147 </i>
    <i name="e_wo_entrp">    -24.04918745 </i>
    <i name="e_0_energy">    -24.05290297 </i>
   </energy>
  </scstep>
  <scstep>
   <time name="dav">    0.62    0.62</time>
   <time name="total">    0.64    0.64</time>
   <energy>
    <i name="alphaZ">    398.54164635 </i>
    <i name="ewald">  -3403.14632769 </i>
    <i name="hartreedc">   -235.30221342 </i>
    <i name="XCdc">     13.26361397 </i>
    <i name="pawpsdc">   2443.45992293 </i>
    <i name="pawaedc">  -2342.14520400 </i>
    <i name="eentropy">     -0.00495394 </i>
    <i name="bandstr">    185.74122394 </i>
    <i name="atom">   2915.53815049 </i>
    <i name="e_fr_energy">    -24.05414136 </i>
    <i name="e_wo_entrp">    -24.04918742 </i>
    <i name="e_0_energy">    -24.05290288 </i>
   </energy>
  </scstep>
  <structure>
   <crystal>
    <varray name="basis" >
     <v>       3.88000000       0.00000000       0.00000000 </v>
     <v>       0.00000000       3.88000000       0.00000000 </v>
     <v>       0.00000000       0.00000000       3.88000000 </v>
    </varray>
    <i name="volume">     58.41107200 </i>
    <varray name="rec_basis" >
     <v>       0.25773196       0.00000000       0.00000000 </v>
     <v>       0.00000000       0.25773196       0.00000000 </v>
     <v>       0.00000000       0.00000000       0.25773196 </v>
    </varray>
   </crystal>
   <varray name="positions" >
    <v>       0.00000000       0.00000000       0.00000000 </v>
    <v>       0.00000000       0.50000000       0.50000000 </v>
    <v>       0.50000000       0.00000000       0.50000000 </v>
    <v>       0.50000000       0.50000000       0.00000000 </v>
   </varray>
  </structure>
  <varray name="forces" >
   <v>       0.00000000       0.00000000      -0.00000000 </v>
   <v>       0.00000000      -0.00000000       0.00000000 </v>
   <v>       0.00000000      -0.00000000      -0.00000000 </v>
   <v>      -0.00000000      -0.00000000      -0.00000000 </v>
  </varray>
  <varray name="stress" >
   <v>     254.59175427       0.00000000       0.00000000 </v>
   <v>       0.00000000     254.59175427       0.00000000 </v>
   <v>      -0.00000000      -0.00000000     254.59175427 </v>
  </varray>
  <energy>
   <i name="e_fr_energy">    -24.05414136 </i>
   <i name="e_wo_entrp">    -24.05290288 </i>
   <i name="e_0_energy">     -0.00495394 </i>
  </energy>
  <time name="totalsc">   13.64   16.08</time>
  <eigenvalues>
   <array>
    <dimension dim="1">band</dimension>
    <dimension dim="2">kpoint</dimension>
    <dimension dim="3">spin</dimension>
    <field>eigene</field>
    <field>occ</field>
    <set>
     <set comment="spin 1">
      <set comment="kpoint 1">
       <r>   -2.0503    1.0000 </r>
       <r>    1.0343    1.0000 </r>
       <r>    1.0343    1.0000 </r>
       <r>    1.0343    1.0000 </r>
       <r>    1.4961    1.0000 </r>
       <r>    1.4961    1.0000 </r>
       <r>    1.4961    1.0000 </r>
       <r>    4.4319    1.0000 </r>
       <r>    4.4680    1.0000 </r>
       <r>    4.4680    1.0000 </r>
       <r>    6.7315    1.0000 </r>
       <r>    6.7315    1.0000 </r>
       <r>    8.4463    0.6212 </r>
       <r>    8.4463    0.6212 </r>
       <r>    8.4463    0.6212 </r>
       <r>    8.7230   -0.0314 </r>
       <r>    8.7230   -0.0314 </r>
       <r>    8.7230   -0.0314 </r>
       <r>    8.9693    0.0021 </r>
       <r>    8.9693    0.0021 </r>
       <r>    8.9693    0.0021 </r>
       <r>   10.4719    0.0000 </r>
       <r>   10.4719    0.0000 </r>
       <r>   10.4719    0.0000 </r>
      </set>
      <set comment="kpoint 2">
       <r>   -1.9417    1.0000 </r>
       <r>    1.0788    1.0000 </r>
       <r>    1.1143    1.0000 </r>
       <r>    1.1143    1.0000 </r>
       <r>    1.5414    1.0000 </r>
       <r>    1.5671    1.0000 </r>
       <r>    1.5671    1.0000 </r>
       <r>    4.3642    1.0000 </r>
       <r>    4.5203    1.0000 </r>
       <r>    4.5246    1.0000 </r>
       <r>    6.6497    1.0000 </r>
       <r>    6.7623    1.0000 </r>
       <r>    8.0806    0.9953 </r>
       <r>    8.0806    0.9953 </r>
       <r>    8.3313    1.0184 </r>
       <r>    8.3313    1.0184 </r>
       <r>    8.3932    0.8611 </r>
       <r>    8.5240    0.2275 </r>
       <r>    8.8388    0.0037 </r>
       <r>    8.9615    0.0023 </r>
       <r>    8.9615    0.0023 </r>
       <r>    9.9815    0.0000 </r>
       <r>   11.1669    0.0000 </r>
       <r>   11.1669    0.0000 </r>
      </set>
      <set comment="kpoint 3">
       <r>   -1.7271    1.0000 </r>
       <r>    1.1601    1.0000 </r>
       <r>    1.2698    1.0000 </r>
       <r>    1.2698    1.0000 </r>
       <r>    1.6312    1.0000 </r>
       <r>    1.7085    1.0000 </r>
       <r>    1.7085    1.0000 </r>
       <r>    4.2246    1.0000 </r>
       <r>    4.6338    1.0000 </r>
       <r>    4.6374    1.0000 </r>
       <r>    6.4929    1.0000 </r>
       <r>    6.8232    1.0000 </r>
       <r>    7.3201    1.0000 </r>
       <r>    7.3201    1.0000 </r>
       <r>    8.0927    0.9958 </r>
       <r>    8.0927    0.9958 </r>
       <r>    8.1151    0.9978 </r>
       <r>    8.2707    1.0512 </r>
       <r>    8.6173   -0.0304 </r>
       <r>    8.9601    0.0024 </r>
       <r>    8.9601    0.0024 </r>
       <r>    9.2596    0.0000 </r>
       <r>   12.0322    0.0000 </r>
       <r>   12.0322    0.0000 </r>
      </set>
      <set comment="kpoint 4">
       <r>   -1.4124    1.0000 </r>
       <r>    1.2603    1.0000 </r>
       <r>    1.4913    1.0000 </r>
       <r>    1.4913    1.0000 </r>
       <r>    1.7637    1.0000 </r>
       <r>    1.9192    1.0000 </r>
       <r>    1.9192    1.0000 </r>
       <r>    4.0271    1.0000 </r>
       <r>    4.8028    1.0000 </r>
       <r>    4.8054    1.0000 </r>
       <r>    6.2750    1.0000 </r>
       <r>    6.5591    1.0000 </r>
       <r>    6.5591    1.0000 </r>
       <r>    6.9124    1.0000 </r>
       <r>    7.4851    1.0000 </r>
       <r>    7.7599    1.0000 </r>
       <r>    7.7599    1.0000 </r>
       <r>    8.0297    0.9958 </r>
       <r>    8.3906    0.8706 </r>
       <r>    8.5640    0.0771 </r>
       <r>    8.9598    0.0024 </r>
       <r>    8.9598    0.0024 </r>
       <r>   12.9385    0.0000 </r>
       <r>   12.9385    0.0000 </r>
      </set>
      <set comment="kpoint 5">
       <r>   -1.0078    1.0000 </r>
       <r>    1.3470    1.0000 </r>
       <r>    1.7619    1.0000 </r>
       <r>    1.7619    1.0000 </r>
       <r>    1.9363    1.0000 </r>
       <r>    2.1968    1.0000 </r>
       <r>    2.1968    1.0000 </r>
       <r>    3.7853    1.0000 </r>
       <r>    5.0217    1.0000 </r>
       <r>    5.0269    1.0000 </r>
       <r>    5.8291    1.0000 </r>
       <r>    5.8291    1.0000 </r>
       <r>    6.0200    1.0000 </r>
       <r>    6.7283    1.0000 </r>
       <r>    7.0276    1.0000 </r>
       <r>    7.3638    1.0000 </r>
       <r>    7.3638    1.0000 </r>
       <r>    7.6646    1.0000 </r>
       <r>    7.9747    0.9978 </r>
       <r>    8.2045    1.0259 </r>
       <r>    8.9601    0.0024 </r>
       <r>    8.9601    0.0024 </r>
       <r>   13.8448    0.0000 </r>
       <r>   13.8448    0.0000 </r>
      </set>
      <set comment="kpoint 6">
       <r>   -0.5303    1.0000 </r>
       <r>    1.3669    1.0000 </r>
       <r>    2.0531    1.0000 </r>
       <r>    2.0531    1.0000 </r>
       <r>    2.1453    1.0000 </r>
       <r>    2.5375    1.0000 </r>
       <r>    2.5375    1.0000 </r>
       <r>    3.5135    1.0000 </r>
       <r>    5.1419    1.0000 </r>
       <r>    5.1419    1.0000 </r>
       <r>    5.2675    1.0000 </r>
       <r>    5.2996    1.0000 </r>
       <r>    5.7778    1.0000 </r>
       <r>    6.0233    1.0000 </r>
       <r>    6.9545    1.0000 </r>
       <r>    6.9545    1.0000 </r>
       <r>    7.1653    1.0000 </r>
       <r>    7.2423    1.0000 </r>
       <r>    7.4474    1.0000 </r>
       <r>    8.0289    0.9958 </r>
       <r>    8.9605    0.0024 </r>
       <r>    8.9605    0.0024 </r>
       <r>   14.7091    0.0000 </r>
       <r>   14.7091    0.0000 </r>
      </set>
      <set comment="kpoint 7">
       <r>   -0.0081    1.0000 </r>
       <r>    1.2515    1.0000 </r>
       <r>    2.3164    1.0000 </r>
       <r>    2.3164    1.0000 </r>
       <r>    2.3858    1.0000 </r>
       <r>    2.9382    1.0000 </r>
       <r>    2.9382    1.0000 </r>
       <r>    3.2257    1.0000 </r>
       <r>    4.5049    1.0000 </r>
       <r>    4.5049    1.0000 </r>
       <r>    5.3588    1.0000 </r>
       <r>    5.5114    1.0000 </r>
       <r>    5.6200    1.0000 </r>
       <r>    5.7679    1.0000 </r>
       <r>    6.6018    1.0000 </r>
       <r>    6.6018    1.0000 </r>
       <r>    6.8068    1.0000 </r>
       <r>    6.9562    1.0000 </r>
       <r>    7.3215    1.0000 </r>
       <r>    7.8502    0.9998 </r>
       <r>    8.9609    0.0024 </r>
       <r>    8.9609    0.0024 </r>
       <r>   15.4031    0.0000 </r>
       <r>   15.4031    0.0000 </r>
      </set>
      <set comment="kpoint 8">
       <r>    0.5114    1.0000 </r>
       <r>    0.9571    1.0000 </r>
       <r>    2.4800    1.0000 </r>
       <r>    2.4800    1.0000 </r>
       <r>    2.6515    1.0000 </r>
       <r>    2.9346    1.0000 </r>
       <r>    3.3986    1.0000 </r>
       <r>    3.3986    1.0000 </r>
       <r>    3.9240    1.0000 </r>
       <r>    3.9240    1.0000 </r>
       <r>    5.2513    1.0000 </r>
       <r>    5.2629    1.0000 </r>
       <r>    5.9832    1.0000 </r>
       <r>    6.0896    1.0000 </r>
       <r>    6.3822    1.0000 </r>
       <r>    6.3907    1.0000 </r>
       <r>    6.3907    1.0000 </r>
       <r>    6.5002    1.0000 </r>
       <r>    7.4914    1.0000 </r>
       <r>    7.6695    1.0000 </r>
       <r>    8.9611    0.0023 </r>
       <r>    8.9611    0.0023 </r>
       <r>   15.6505    0.0000 </r>
       <r>   15.6505    0.0000 </r>
      </set>
      <set comment="kpoint 9">
       <r>   -1.8347    1.0000 </r>
       <r>    1.1594    1.0000 </r>
       <r>    1.1594    1.0000 </r>
       <r>    1.1837    1.0000 </r>
       <r>    1.6115    1.0000 </r>
       <r>    1.6115    1.0000 </r>
       <r>    1.6447    1.0000 </r>
       <r>    4.3264    1.0000 </r>
       <r>    4.5466    1.0000 </r>
       <r>    4.5741    1.0000 </r>
       <r>    6.6272    1.0000 </r>
       <r>    6.7421    1.0000 </r>
       <r>    7.7175    1.0000 </r>
       <r>    7.8347    0.9999 </r>
       <r>    7.8347    0.9999 </r>
       <r>    8.2010    1.0242 </r>
       <r>    8.3035    1.0450 </r>
       <r>    8.3035    1.0450 </r>
       <r>    8.8374    0.0036 </r>
       <r>    8.8374    0.0036 </r>
       <r>    8.8880    0.0048 </r>
       <r>   10.6874    0.0000 </r>
       <r>   10.6874    0.0000 </r>
       <r>   11.6748    0.0000 </r>
      </set>
      <set comment="kpoint 10">
       <r>   -1.6233    1.0000 </r>
       <r>    1.2420    1.0000 </r>
       <r>    1.3164    1.0000 </r>
       <r>    1.3200    1.0000 </r>
       <r>    1.6995    1.0000 </r>
       <r>    1.7512    1.0000 </r>
       <r>    1.7977    1.0000 </r>
       <r>    4.2086    1.0000 </r>
       <r>    4.6431    1.0000 </r>
       <r>    4.6743    1.0000 </r>
       <r>    6.4971    1.0000 </r>
       <r>    6.7931    1.0000 </r>
       <r>    7.0766    1.0000 </r>
       <r>    7.1158    1.0000 </r>
       <r>    7.4151    1.0000 </r>
       <r>    7.9834    0.9975 </r>
       <r>    8.0906    0.9957 </r>
       <r>    8.1746    1.0129 </r>
       <r>    8.6267   -0.0391 </r>
       <r>    8.8280    0.0027 </r>
       <r>    8.8428    0.0040 </r>
       <r>    9.9757    0.0000 </r>
       <r>   11.5192    0.0000 </r>
       <r>   12.4245    0.0000 </r>
      </set>
      <set comment="kpoint 11">
       <r>   -1.3133    1.0000 </r>
       <r>    1.3439    1.0000 </r>
       <r>    1.5177    1.0000 </r>
       <r>    1.5400    1.0000 </r>
       <r>    1.8294    1.0000 </r>
       <r>    1.9592    1.0000 </r>
       <r>    2.0200    1.0000 </r>
       <r>    4.0244    1.0000 </r>
       <r>    4.8053    1.0000 </r>
       <r>    4.8199    1.0000 </r>
       <r>    6.2977    1.0000 </r>
       <r>    6.3307    1.0000 </r>
       <r>    6.4395    1.0000 </r>
       <r>    6.8605    1.0000 </r>
       <r>    6.8920    1.0000 </r>
       <r>    7.6780    1.0000 </r>
       <r>    7.7833    1.0000 </r>
       <r>    7.9213    0.9991 </r>
       <r>    8.3768    0.9169 </r>
       <r>    8.8207    0.0018 </r>
       <r>    8.8213    0.0019 </r>
       <r>    9.2527    0.0000 </r>
       <r>   12.3598    0.0000 </r>
       <r>   13.2653    0.0000 </r>
      </set>
      <set comment="kpoint 12">
       <r>   -0.9145    1.0000 </r>
       <r>    1.4322    1.0000 </r>
       <r>    1.7680    1.0000 </r>
       <r>    1.8141    1.0000 </r>
       <r>    1.9983    1.0000 </r>
       <r>    2.2328    1.0000 </r>
       <r>    2.3005    1.0000 </r>
       <r>    3.7934    1.0000 </r>
       <r>    4.9946    1.0000 </r>
       <r>    5.0251    1.0000 </r>
       <r>    5.6212    1.0000 </r>
       <r>    5.7596    1.0000 </r>
       <r>    6.0749    1.0000 </r>
       <r>    6.2391    1.0000 </r>
       <r>    7.0236    1.0000 </r>
       <r>    7.3090    1.0000 </r>
       <r>    7.4089    1.0000 </r>
       <r>    7.5663    1.0000 </r>
       <r>    8.0647    0.9951 </r>
       <r>    8.6602   -0.0516 </r>
       <r>    8.8112    0.0003 </r>
       <r>    8.8158    0.0011 </r>
       <r>   13.1619    0.0000 </r>
       <r>   14.1294    0.0000 </r>
      </set>
      <set comment="kpoint 13">
       <r>   -0.4434    1.0000 </r>
       <r>    1.4524    1.0000 </r>
       <r>    2.0541    1.0000 </r>
       <r>    2.1107    1.0000 </r>
       <r>    2.2026    1.0000 </r>
       <r>    2.5677    1.0000 </r>
       <r>    2.6225    1.0000 </r>
       <r>    3.5316    1.0000 </r>
       <r>    4.9599    1.0000 </r>
       <r>    5.1056    1.0000 </r>
       <r>    5.1485    1.0000 </r>
       <r>    5.2927    1.0000 </r>
       <r>    5.6589    1.0000 </r>
       <r>    5.9117    1.0000 </r>
       <r>    6.9245    1.0000 </r>
       <r>    7.0129    1.0000 </r>
       <r>    7.1609    1.0000 </r>
       <r>    7.1824    1.0000 </r>
       <r>    7.6236    1.0000 </r>
       <r>    8.2741    1.0515 </r>
       <r>    8.8070   -0.0005 </r>
       <r>    8.8124    0.0005 </r>
       <r>   13.8750    0.0000 </r>
       <r>   14.9375    0.0000 </r>
      </set>
      <set comment="kpoint 14">
       <r>    0.0728    1.0000 </r>
       <r>    1.3344    1.0000 </r>
       <r>    2.3366    1.0000 </r>
       <r>    2.3811    1.0000 </r>
       <r>    2.4371    1.0000 </r>
       <r>    2.9589    1.0000 </r>
       <r>    2.9706    1.0000 </r>
       <r>    3.2532    1.0000 </r>
       <r>    4.3574    1.0000 </r>
       <r>    4.4927    1.0000 </r>
       <r>    5.1555    1.0000 </r>
       <r>    5.2385    1.0000 </r>
       <r>    5.6041    1.0000 </r>
       <r>    5.9708    1.0000 </r>
       <r>    6.5958    1.0000 </r>
       <r>    6.6604    1.0000 </r>
       <r>    6.7435    1.0000 </r>
       <r>    7.1293    1.0000 </r>
       <r>    7.3637    1.0000 </r>
       <r>    8.0074    0.9966 </r>
       <r>    8.8059   -0.0007 </r>
       <r>    8.8098    0.0000 </r>
       <r>   14.4394    0.0000 </r>
       <r>   15.2378    0.0000 </r>
      </set>
      <set comment="kpoint 15">
       <r>    0.5891    1.0000 </r>
       <r>    1.0358    1.0000 </r>
       <r>    2.5320    1.0000 </r>
       <r>    2.5474    1.0000 </r>
       <r>    2.6957    1.0000 </r>
       <r>    2.9709    1.0000 </r>
       <r>    3.3501    1.0000 </r>
       <r>    3.3989    1.0000 </r>
       <r>    3.8326    1.0000 </r>
       <r>    3.9347    1.0000 </r>
       <r>    5.0488    1.0000 </r>
       <r>    5.0604    1.0000 </r>
       <r>    5.9540    1.0000 </r>
       <r>    6.2602    1.0000 </r>
       <r>    6.3365    1.0000 </r>
       <r>    6.4102    1.0000 </r>
       <r>    6.4347    1.0000 </r>
       <r>    6.6632    1.0000 </r>
       <r>    7.5631    1.0000 </r>
       <r>    7.7772    1.0000 </r>
       <r>    8.8064   -0.0006 </r>
       <r>    8.8078   -0.0003 </r>
       <r>   14.8250    0.0000 </r>
       <r>   15.0759    0.0000 </r>
      </set>
      <set comment="kpoint 16">
       <r>   -1.4182    1.0000 </r>
       <r>    1.4015    1.0000 </r>
       <r>    1.4015    1.0000 </r>
       <r>    1.4240    1.0000 </r>
       <r>    1.8357    1.0000 </r>
       <r>    1.8357    1.0000 </r>
       <r>    1.9669    1.0000 </r>
       <r>    4.1391    1.0000 </r>
       <r>    4.7010    1.0000 </r>
       <r>    4.7480    1.0000 </r>
       <r>    6.4433    1.0000 </r>
       <r>    6.6719    1.0000 </r>
       <r>    6.6719    1.0000 </r>
       <r>    6.7193    1.0000 </r>
       <r>    6.8017    1.0000 </r>
       <r>    7.7872    1.0000 </r>
       <r>    8.0115    0.9964 </r>
       <r>    8.0115    0.9964 </r>
       <r>    8.5959    0.0002 </r>
       <r>    8.5959    0.0002 </r>
       <r>    8.7179   -0.0338 </r>
       <r>   10.7698    0.0000 </r>
       <r>   10.7698    0.0000 </r>
       <r>   13.0641    0.0000 </r>
      </set>
      <set comment="kpoint 17">
       <r>   -1.1174    1.0000 </r>
       <r>    1.5070    1.0000 </r>
       <r>    1.5851    1.0000 </r>
       <r>    1.6294    1.0000 </r>
       <r>    1.9602    1.0000 </r>
       <r>    2.0383    1.0000 </r>
       <r>    2.2014    1.0000 </r>
       <r>    3.9966    1.0000 </r>
       <r>    4.8346    1.0000 </r>
       <r>    4.8507    1.0000 </r>
       <r>    5.9556    1.0000 </r>
       <r>    6.1736    1.0000 </r>
       <r>    6.1943    1.0000 </r>
       <r>    6.2978    1.0000 </r>
       <r>    6.8991    1.0000 </r>
       <r>    7.5198    1.0000 </r>
       <r>    7.7547    1.0000 </r>
       <r>    7.8086    0.9999 </r>
       <r>    8.3099    1.0409 </r>
       <r>    8.5703    0.0588 </r>
       <r>    8.6317   -0.0427 </r>
       <r>   10.0006    0.0000 </r>
       <r>   11.5513    0.0000 </r>
       <r>   13.8259    0.0000 </r>
      </set>
      <set comment="kpoint 18">
       <r>   -0.7304    1.0000 </r>
       <r>    1.5987    1.0000 </r>
       <r>    1.8030    1.0000 </r>
       <r>    1.9102    1.0000 </r>
       <r>    2.1219    1.0000 </r>
       <r>    2.3045    1.0000 </r>
       <r>    2.4803    1.0000 </r>
       <r>    3.7967    1.0000 </r>
       <r>    4.9588    1.0000 </r>
       <r>    5.0379    1.0000 </r>
       <r>    5.2818    1.0000 </r>
       <r>    5.6143    1.0000 </r>
       <r>    5.6469    1.0000 </r>
       <r>    6.1243    1.0000 </r>
       <r>    7.0588    1.0000 </r>
       <r>    7.1963    1.0000 </r>
       <r>    7.4244    1.0000 </r>
       <r>    7.4880    1.0000 </r>
       <r>    7.9849    0.9974 </r>
       <r>    8.5535    0.1109 </r>
       <r>    8.5801    0.0334 </r>
       <r>    9.3246    0.0000 </r>
       <r>   12.2833    0.0000 </r>
       <r>   14.6188    0.0000 </r>
      </set>
      <set comment="kpoint 19">
       <r>   -0.2725    1.0000 </r>
       <r>    1.6192    1.0000 </r>
       <r>    2.0712    1.0000 </r>
       <r>    2.2180    1.0000 </r>
       <r>    2.3165    1.0000 </r>
       <r>    2.6279    1.0000 </r>
       <r>    2.7739    1.0000 </r>
       <r>    3.5602    1.0000 </r>
       <r>    4.6616    1.0000 </r>
       <r>    5.0165    1.0000 </r>
       <r>    5.0279    1.0000 </r>
       <r>    5.1772    1.0000 </r>
       <r>    5.2961    1.0000 </r>
       <r>    6.0237    1.0000 </r>
       <r>    6.8562    1.0000 </r>
       <r>    7.0604    1.0000 </r>
       <r>    7.1019    1.0000 </r>
       <r>    7.2605    1.0000 </r>
       <r>    7.5990    1.0000 </r>
       <r>    8.5427    0.1502 </r>
       <r>    8.5516    0.1175 </r>
       <r>    8.7895   -0.0045 </r>
       <r>   12.9314    0.0000 </r>
       <r>   14.8136    0.0000 </r>
      </set>
      <set comment="kpoint 20">
       <r>    0.2313    1.0000 </r>
       <r>    1.4950    1.0000 </r>
       <r>    2.3686    1.0000 </r>
       <r>    2.5049    1.0000 </r>
       <r>    2.5387    1.0000 </r>
       <r>    2.9991    1.0000 </r>
       <r>    3.0444    1.0000 </r>
       <r>    3.3036    1.0000 </r>
       <r>    4.1114    1.0000 </r>
       <r>    4.4643    1.0000 </r>
       <r>    4.8634    1.0000 </r>
       <r>    4.9551    1.0000 </r>
       <r>    5.5989    1.0000 </r>
       <r>    6.1055    1.0000 </r>
       <r>    6.5696    1.0000 </r>
       <r>    6.6988    1.0000 </r>
       <r>    6.7207    1.0000 </r>
       <r>    7.1658    1.0000 </r>
       <r>    7.4945    1.0000 </r>
       <r>    8.3800    0.9068 </r>
       <r>    8.5357    0.1778 </r>
       <r>    8.5374    0.1709 </r>
       <r>   13.4676    0.0000 </r>
       <r>   14.5136    0.0000 </r>
      </set>
      <set comment="kpoint 21">
       <r>    0.7398    1.0000 </r>
       <r>    1.1879    1.0000 </r>
       <r>    2.6231    1.0000 </r>
       <r>    2.6793    1.0000 </r>
       <r>    2.7826    1.0000 </r>
       <r>    3.0406    1.0000 </r>
       <r>    3.2807    1.0000 </r>
       <r>    3.3793    1.0000 </r>
       <r>    3.6961    1.0000 </r>
       <r>    3.9477    1.0000 </r>
       <r>    4.7606    1.0000 </r>
       <r>    4.8271    1.0000 </r>
       <r>    5.9375    1.0000 </r>
       <r>    6.3062    1.0000 </r>
       <r>    6.3664    1.0000 </r>
       <r>    6.4253    1.0000 </r>
       <r>    6.4830    1.0000 </r>
       <r>    6.7378    1.0000 </r>
       <r>    7.7564    1.0000 </r>
       <r>    8.0472    0.9953 </r>
       <r>    8.5319    0.1934 </r>
       <r>    8.5319    0.1934 </r>
       <r>   13.8863    0.0000 </r>
       <r>   14.2175    0.0000 </r>
      </set>
      <set comment="kpoint 22">
       <r>   -0.8303    1.0000 </r>
       <r>    1.7053    1.0000 </r>
       <r>    1.7407    1.0000 </r>
       <r>    1.7407    1.0000 </r>
       <r>    2.1551    1.0000 </r>
       <r>    2.1551    1.0000 </r>
       <r>    2.4399    1.0000 </r>
       <r>    3.9155    1.0000 </r>
       <r>    4.8934    1.0000 </r>
       <r>    4.9253    1.0000 </r>
       <r>    5.5101    1.0000 </r>
       <r>    5.5101    1.0000 </r>
       <r>    5.8323    1.0000 </r>
       <r>    6.2217    1.0000 </r>
       <r>    6.9991    1.0000 </r>
       <r>    7.2968    1.0000 </r>
       <r>    7.6169    1.0000 </r>
       <r>    7.6169    1.0000 </r>
       <r>    8.2510    1.0466 </r>
       <r>    8.2510    1.0466 </r>
       <r>    8.4637    0.5304 </r>
       <r>   10.7325    0.0000 </r>
       <r>   10.7325    0.0000 </r>
       <r>   14.5099    0.0000 </r>
      </set>
      <set comment="kpoint 23">
       <r>   -0.4610    1.0000 </r>
       <r>    1.8377    1.0000 </r>
       <r>    1.8829    1.0000 </r>
       <r>    2.0305    1.0000 </r>
       <r>    2.3061    1.0000 </r>
       <r>    2.4108    1.0000 </r>
       <r>    2.7085    1.0000 </r>
       <r>    3.7736    1.0000 </r>
       <r>    4.8879    1.0000 </r>
       <r>    4.9297    1.0000 </r>
       <r>    5.0607    1.0000 </r>
       <r>    5.0909    1.0000 </r>
       <r>    5.3869    1.0000 </r>
       <r>    6.1000    1.0000 </r>
       <r>    7.0255    1.0000 </r>
       <r>    7.1936    1.0000 </r>
       <r>    7.3460    1.0000 </r>
       <r>    7.3571    1.0000 </r>
       <r>    7.8949    0.9995 </r>
       <r>    8.2131    1.0300 </r>
       <r>    8.3409    1.0034 </r>
       <r>    9.9991    0.0000 </r>
       <r>   11.4192    0.0000 </r>
       <r>   14.5316    0.0000 </r>
      </set>
      <set comment="kpoint 24">
       <r>   -0.0235    1.0000 </r>
       <r>    1.8577    1.0000 </r>
       <r>    2.1179    1.0000 </r>
       <r>    2.3536    1.0000 </r>
       <r>    2.4860    1.0000 </r>
       <r>    2.7190    1.0000 </r>
       <r>    2.9694    1.0000 </r>
       <r>    3.5846    1.0000 </r>
       <r>    4.3186    1.0000 </r>
       <r>    4.6884    1.0000 </r>
       <r>    4.9014    1.0000 </r>
       <r>    4.9117    1.0000 </r>
       <r>    5.3228    1.0000 </r>
       <r>    6.0319    1.0000 </r>
       <r>    6.7388    1.0000 </r>
       <r>    7.0116    1.0000 </r>
       <r>    7.0291    1.0000 </r>
       <r>    7.4513    1.0000 </r>
       <r>    7.5068    1.0000 </r>
       <r>    8.1911    1.0197 </r>
       <r>    8.2607    1.0494 </r>
       <r>    9.3857    0.0000 </r>
       <r>   12.0351    0.0000 </r>
       <r>   14.0886    0.0000 </r>
      </set>
      <set comment="kpoint 25">
       <r>    0.4601    1.0000 </r>
       <r>    1.7221    1.0000 </r>
       <r>    2.4043    1.0000 </r>
       <r>    2.6699    1.0000 </r>
       <r>    2.6886    1.0000 </r>
       <r>    3.0578    1.0000 </r>
       <r>    3.1660    1.0000 </r>
       <r>    3.3673    1.0000 </r>
       <r>    3.8262    1.0000 </r>
       <r>    4.4132    1.0000 </r>
       <r>    4.4843    1.0000 </r>
       <r>    4.7956    1.0000 </r>
       <r>    5.6042    1.0000 </r>
       <r>    6.1112    1.0000 </r>
       <r>    6.5015    1.0000 </r>
       <r>    6.6351    1.0000 </r>
       <r>    6.7180    1.0000 </r>
       <r>    7.0950    1.0000 </r>
       <r>    7.7524    1.0000 </r>
       <r>    8.1801    1.0150 </r>
       <r>    8.2130    1.0300 </r>
       <r>    8.8835    0.0049 </r>
       <r>   12.5615    0.0000 </r>
       <r>   13.7118    0.0000 </r>
      </set>
      <set comment="kpoint 26">
       <r>    0.9543    1.0000 </r>
       <r>    1.4017    1.0000 </r>
       <r>    2.7146    1.0000 </r>
       <r>    2.8694    1.0000 </r>
       <r>    2.9082    1.0000 </r>
       <r>    3.1376    1.0000 </r>
       <r>    3.2440    1.0000 </r>
       <r>    3.2771    1.0000 </r>
       <r>    3.6078    1.0000 </r>
       <r>    3.9546    1.0000 </r>
       <r>    4.4825    1.0000 </r>
       <r>    4.6204    1.0000 </r>
       <r>    5.9207    1.0000 </r>
       <r>    6.2657    1.0000 </r>
       <r>    6.3476    1.0000 </r>
       <r>    6.3996    1.0000 </r>
       <r>    6.4827    1.0000 </r>
       <r>    6.6930    1.0000 </r>
       <r>    8.0882    0.9955 </r>
       <r>    8.1785    1.0144 </r>
       <r>    8.1880    1.0183 </r>
       <r>    8.4605    0.5470 </r>
       <r>   12.9969    0.0000 </r>
       <r>   13.3653    0.0000 </r>
      </set>
      <set comment="kpoint 27">
       <r>   -0.1151    1.0000 </r>
       <r>    2.0150    1.0000 </r>
       <r>    2.1346    1.0000 </r>
       <r>    2.1346    1.0000 </r>
       <r>    2.5486    1.0000 </r>
       <r>    2.5486    1.0000 </r>
       <r>    2.9566    1.0000 </r>
       <r>    3.7046    1.0000 </r>
       <r>    4.5081    1.0000 </r>
       <r>    4.5081    1.0000 </r>
       <r>    4.8999    1.0000 </r>
       <r>    5.0820    1.0000 </r>
       <r>    5.2071    1.0000 </r>
       <r>    6.0130    1.0000 </r>
       <r>    6.8070    1.0000 </r>
       <r>    7.1499    1.0000 </r>
       <r>    7.1499    1.0000 </r>
       <r>    7.4357    1.0000 </r>
       <r>    7.8301    0.9999 </r>
       <r>    7.8301    0.9999 </r>
       <r>    8.1377    1.0017 </r>
       <r>   10.6452    0.0000 </r>
       <r>   10.6452    0.0000 </r>
       <r>   13.9284    0.0000 </r>
      </set>
      <set comment="kpoint 28">
       <r>    0.2943    1.0000 </r>
       <r>    2.1511    1.0000 </r>
       <r>    2.2017    1.0000 </r>
       <r>    2.4683    1.0000 </r>
       <r>    2.7094    1.0000 </r>
       <r>    2.8417    1.0000 </r>
       <r>    3.1835    1.0000 </r>
       <r>    3.5865    1.0000 </r>
       <r>    4.0026    1.0000 </r>
       <r>    4.2296    1.0000 </r>
       <r>    4.7200    1.0000 </r>
       <r>    4.8311    1.0000 </r>
       <r>    5.3906    1.0000 </r>
       <r>    5.9552    1.0000 </r>
       <r>    6.5703    1.0000 </r>
       <r>    6.8579    1.0000 </r>
       <r>    6.8862    1.0000 </r>
       <r>    7.4241    1.0000 </r>
       <r>    7.7518    1.0000 </r>
       <r>    7.7950    1.0000 </r>
       <r>    7.9856    0.9974 </r>
       <r>    9.9849    0.0000 </r>
       <r>   11.2378    0.0000 </r>
       <r>   13.4187    0.0000 </r>
      </set>
      <set comment="kpoint 29">
       <r>    0.7481    1.0000 </r>
       <r>    1.9943    1.0000 </r>
       <r>    2.4436    1.0000 </r>
       <r>    2.8101    1.0000 </r>
       <r>    2.8834    1.0000 </r>
       <r>    3.1490    1.0000 </r>
       <r>    3.3262    1.0000 </r>
       <r>    3.4304    1.0000 </r>
       <r>    3.5730    1.0000 </r>
       <r>    4.1441    1.0000 </r>
       <r>    4.3317    1.0000 </r>
       <r>    4.6797    1.0000 </r>
       <r>    5.6239    1.0000 </r>
       <r>    6.0286    1.0000 </r>
       <r>    6.3755    1.0000 </r>
       <r>    6.5212    1.0000 </r>
       <r>    6.6133    1.0000 </r>
       <r>    7.0083    1.0000 </r>
       <r>    7.7824    1.0000 </r>
       <r>    7.8830    0.9996 </r>
       <r>    8.1147    0.9977 </r>
       <r>    9.4277    0.0000 </r>
       <r>   11.7602    0.0000 </r>
       <r>   12.9933    0.0000 </r>
      </set>
      <set comment="kpoint 30">
       <r>    1.2177    1.0000 </r>
       <r>    1.6573    1.0000 </r>
       <r>    2.7387    1.0000 </r>
       <r>    3.0662    1.0000 </r>
       <r>    3.0714    1.0000 </r>
       <r>    3.1177    1.0000 </r>
       <r>    3.2522    1.0000 </r>
       <r>    3.3109    1.0000 </r>
       <r>    3.5991    1.0000 </r>
       <r>    3.9487    1.0000 </r>
       <r>    4.2522    1.0000 </r>
       <r>    4.4625    1.0000 </r>
       <r>    5.8889    1.0000 </r>
       <r>    6.1889    1.0000 </r>
       <r>    6.2623    1.0000 </r>
       <r>    6.3032    1.0000 </r>
       <r>    6.3949    1.0000 </r>
       <r>    6.6077    1.0000 </r>
       <r>    7.7901    1.0000 </r>
       <r>    7.8211    0.9999 </r>
       <r>    8.5124    0.2805 </r>
       <r>    8.9455    0.0029 </r>
       <r>   12.2104    0.0000 </r>
       <r>   12.6077    0.0000 </r>
      </set>
      <set comment="kpoint 31">
       <r>    0.6680    1.0000 </r>
       <r>    2.3263    1.0000 </r>
       <r>    2.4701    1.0000 </r>
       <r>    2.4701    1.0000 </r>
       <r>    2.9825    1.0000 </r>
       <r>    2.9825    1.0000 </r>
       <r>    3.3781    1.0000 </r>
       <r>    3.5515    1.0000 </r>
       <r>    3.8212    1.0000 </r>
       <r>    3.8212    1.0000 </r>
       <r>    4.4862    1.0000 </r>
       <r>    4.7410    1.0000 </r>
       <r>    5.5023    1.0000 </r>
       <r>    5.8932    1.0000 </r>
       <r>    6.3724    1.0000 </r>
       <r>    6.6427    1.0000 </r>
       <r>    6.6427    1.0000 </r>
       <r>    7.3796    1.0000 </r>
       <r>    7.3796    1.0000 </r>
       <r>    7.7556    1.0000 </r>
       <r>    8.1236    0.9990 </r>
       <r>   10.5535    0.0000 </r>
       <r>   10.5535    0.0000 </r>
       <r>   12.8573    0.0000 </r>
      </set>
      <set comment="kpoint 32">
       <r>    1.0806    1.0000 </r>
       <r>    2.2747    1.0000 </r>
       <r>    2.4918    1.0000 </r>
       <r>    2.7578    1.0000 </r>
       <r>    3.1168    1.0000 </r>
       <r>    3.2919    1.0000 </r>
       <r>    3.4766    1.0000 </r>
       <r>    3.4942    1.0000 </r>
       <r>    3.4977    1.0000 </r>
       <r>    3.8722    1.0000 </r>
       <r>    4.2148    1.0000 </r>
       <r>    4.5871    1.0000 </r>
       <r>    5.6341    1.0000 </r>
       <r>    5.9755    1.0000 </r>
       <r>    6.2009    1.0000 </r>
       <r>    6.3449    1.0000 </r>
       <r>    6.4080    1.0000 </r>
       <r>    6.9632    1.0000 </r>
       <r>    7.3722    1.0000 </r>
       <r>    7.5829    1.0000 </r>
       <r>    8.5376    0.1701 </r>
       <r>    9.9681    0.0000 </r>
       <r>   11.0728    0.0000 </r>
       <r>   12.3875    0.0000 </r>
      </set>
      <set comment="kpoint 33">
       <r>    1.5099    1.0000 </r>
       <r>    1.9253    1.0000 </r>
       <r>    2.6884    1.0000 </r>
       <r>    2.8511    1.0000 </r>
       <r>    3.2464    1.0000 </r>
       <r>    3.3704    1.0000 </r>
       <r>    3.3764    1.0000 </r>
       <r>    3.4742    1.0000 </r>
       <r>    3.6200    1.0000 </r>
       <r>    3.9251    1.0000 </r>
       <r>    4.0890    1.0000 </r>
       <r>    4.3540    1.0000 </r>
       <r>    5.8056    1.0000 </r>
       <r>    6.0499    1.0000 </r>
       <r>    6.1347    1.0000 </r>
       <r>    6.2157    1.0000 </r>
       <r>    6.2235    1.0000 </r>
       <r>    6.5678    1.0000 </r>
       <r>    7.3996    1.0000 </r>
       <r>    7.4669    1.0000 </r>
       <r>    8.9804    0.0017 </r>
       <r>    9.4526    0.0000 </r>
       <r>   11.5383    0.0000 </r>
       <r>   11.9645    0.0000 </r>
      </set>
      <set comment="kpoint 34">
       <r>    1.4401    1.0000 </r>
       <r>    2.5027    1.0000 </r>
       <r>    2.5027    1.0000 </r>
       <r>    2.5504    1.0000 </r>
       <r>    3.3717    1.0000 </r>
       <r>    3.3717    1.0000 </r>
       <r>    3.4929    1.0000 </r>
       <r>    3.6180    1.0000 </r>
       <r>    3.7061    1.0000 </r>
       <r>    3.7061    1.0000 </r>
       <r>    4.0649    1.0000 </r>
       <r>    4.4673    1.0000 </r>
       <r>    5.6237    1.0000 </r>
       <r>    6.0273    1.0000 </r>
       <r>    6.0707    1.0000 </r>
       <r>    6.1434    1.0000 </r>
       <r>    6.1434    1.0000 </r>
       <r>    6.9716    1.0000 </r>
       <r>    6.9716    1.0000 </r>
       <r>    7.3354    1.0000 </r>
       <r>    8.9917    0.0014 </r>
       <r>   10.4819    0.0000 </r>
       <r>   10.4819    0.0000 </r>
       <r>   11.8763    0.0000 </r>
      </set>
      <set comment="kpoint 35">
       <r>    1.8087    1.0000 </r>
       <r>    2.1695    1.0000 </r>
       <r>    2.6057    1.0000 </r>
       <r>    2.6121    1.0000 </r>
       <r>    3.4306    1.0000 </r>
       <r>    3.4754    1.0000 </r>
       <r>    3.5789    1.0000 </r>
       <r>    3.6452    1.0000 </r>
       <r>    3.7121    1.0000 </r>
       <r>    3.8898    1.0000 </r>
       <r>    3.9975    1.0000 </r>
       <r>    4.2684    1.0000 </r>
       <r>    5.6948    1.0000 </r>
       <r>    5.8835    1.0000 </r>
       <r>    5.9365    1.0000 </r>
       <r>    5.9839    1.0000 </r>
       <r>    6.2943    1.0000 </r>
       <r>    6.6038    1.0000 </r>
       <r>    7.0328    1.0000 </r>
       <r>    7.1519    1.0000 </r>
       <r>    9.4639    0.0000 </r>
       <r>    9.9553    0.0000 </r>
       <r>   10.9613    0.0000 </r>
       <r>   11.4161    0.0000 </r>
      </set>
      <set comment="kpoint 36">
       <r>    2.0956    1.0000 </r>
       <r>    2.3624    1.0000 </r>
       <r>    2.3624    1.0000 </r>
       <r>    2.5018    1.0000 </r>
       <r>    3.5519    1.0000 </r>
       <r>    3.5913    1.0000 </r>
       <r>    3.5913    1.0000 </r>
       <r>    3.6923    1.0000 </r>
       <r>    3.9020    1.0000 </r>
       <r>    3.9520    1.0000 </r>
       <r>    3.9520    1.0000 </r>
       <r>    4.1487    1.0000 </r>
       <r>    5.6636    1.0000 </r>
       <r>    5.7724    1.0000 </r>
       <r>    5.7724    1.0000 </r>
       <r>    5.7900    1.0000 </r>
       <r>    6.4622    1.0000 </r>
       <r>    6.7133    1.0000 </r>
       <r>    6.7133    1.0000 </r>
       <r>    6.8967    1.0000 </r>
       <r>    9.9505    0.0000 </r>
       <r>   10.4433    0.0000 </r>
       <r>   10.4433    0.0000 </r>
       <r>   10.9222    0.0000 </r>
      </set>
      <set comment="kpoint 37">
       <r>   -1.7295    1.0000 </r>
       <r>    1.2287    1.0000 </r>
       <r>    1.2287    1.0000 </r>
       <r>    1.2287    1.0000 </r>
       <r>    1.6890    1.0000 </r>
       <r>    1.6890    1.0000 </r>
       <r>    1.6890    1.0000 </r>
       <r>    4.2955    1.0000 </r>
       <r>    4.5932    1.0000 </r>
       <r>    4.5932    1.0000 </r>
       <r>    6.6674    1.0000 </r>
       <r>    6.6674    1.0000 </r>
       <r>    7.4980    1.0000 </r>
       <r>    7.4980    1.0000 </r>
       <r>    7.4980    1.0000 </r>
       <r>    8.0862    0.9955 </r>
       <r>    8.0862    0.9955 </r>
       <r>    8.0862    0.9955 </r>
       <r>    8.8407    0.0039 </r>
       <r>    8.8407    0.0039 </r>
       <r>    8.8407    0.0039 </r>
       <r>   11.1735    0.0000 </r>
       <r>   11.1735    0.0000 </r>
       <r>   11.1735    0.0000 </r>
      </set>
      <set comment="kpoint 38">
       <r>   -1.5219    1.0000 </r>
       <r>    1.3106    1.0000 </r>
       <r>    1.3644    1.0000 </r>
       <r>    1.3644    1.0000 </r>
       <r>    1.7766    1.0000 </r>
       <r>    1.8415    1.0000 </r>
       <r>    1.8415    1.0000 </r>
       <r>    4.1952    1.0000 </r>
       <r>    4.6720    1.0000 </r>
       <r>    4.6861    1.0000 </r>
       <r>    6.5261    1.0000 </r>
       <r>    6.7465    1.0000 </r>
       <r>    6.8983    1.0000 </r>
       <r>    6.8983    1.0000 </r>
       <r>    7.0909    1.0000 </r>
       <r>    7.8712    0.9997 </r>
       <r>    7.8843    0.9996 </r>
       <r>    7.8843    0.9996 </r>
       <r>    8.7482   -0.0195 </r>
       <r>    8.8046   -0.0010 </r>
       <r>    8.8046   -0.0010 </r>
       <r>   10.4201    0.0000 </r>
       <r>   11.8809    0.0000 </r>
       <r>   11.8809    0.0000 </r>
      </set>
      <set comment="kpoint 39">
       <r>   -1.2174    1.0000 </r>
       <r>    1.4115    1.0000 </r>
       <r>    1.5614    1.0000 </r>
       <r>    1.5614    1.0000 </r>
       <r>    1.9060    1.0000 </r>
       <r>    2.0630    1.0000 </r>
       <r>    2.0630    1.0000 </r>
       <r>    4.0260    1.0000 </r>
       <r>    4.8104    1.0000 </r>
       <r>    4.8250    1.0000 </r>
       <r>    6.2307    1.0000 </r>
       <r>    6.2307    1.0000 </r>
       <r>    6.3381    1.0000 </r>
       <r>    6.5543    1.0000 </r>
       <r>    6.8621    1.0000 </r>
       <r>    7.5802    1.0000 </r>
       <r>    7.6268    1.0000 </r>
       <r>    7.6268    1.0000 </r>
       <r>    8.6150   -0.0278 </r>
       <r>    8.7604   -0.0144 </r>
       <r>    8.7604   -0.0144 </r>
       <r>    9.6118    0.0000 </r>
       <r>   12.6535    0.0000 </r>
       <r>   12.6535    0.0000 </r>
      </set>
      <set comment="kpoint 40">
       <r>   -0.8258    1.0000 </r>
       <r>    1.4985    1.0000 </r>
       <r>    1.8118    1.0000 </r>
       <r>    1.8118    1.0000 </r>
       <r>    2.0737    1.0000 </r>
       <r>    2.3412    1.0000 </r>
       <r>    2.3412    1.0000 </r>
       <r>    3.8078    1.0000 </r>
       <r>    4.9752    1.0000 </r>
       <r>    5.0089    1.0000 </r>
       <r>    5.5690    1.0000 </r>
       <r>    5.5690    1.0000 </r>
       <r>    5.9688    1.0000 </r>
       <r>    6.1462    1.0000 </r>
       <r>    7.0104    1.0000 </r>
       <r>    7.2398    1.0000 </r>
       <r>    7.3014    1.0000 </r>
       <r>    7.3014    1.0000 </r>
       <r>    8.4474    0.6156 </r>
       <r>    8.7257   -0.0300 </r>
       <r>    8.7257   -0.0300 </r>
       <r>    8.8399    0.0038 </r>
       <r>   13.4132    0.0000 </r>
       <r>   13.4132    0.0000 </r>
      </set>
      <set comment="kpoint 41">
       <r>   -0.3630    1.0000 </r>
       <r>    1.5173    1.0000 </r>
       <r>    2.1004    1.0000 </r>
       <r>    2.1004    1.0000 </r>
       <r>    2.2747    1.0000 </r>
       <r>    2.6561    1.0000 </r>
       <r>    2.6561    1.0000 </r>
       <r>    3.5578    1.0000 </r>
       <r>    4.9433    1.0000 </r>
       <r>    4.9433    1.0000 </r>
       <r>    5.0895    1.0000 </r>
       <r>    5.2363    1.0000 </r>
       <r>    5.4356    1.0000 </r>
       <r>    6.0483    1.0000 </r>
       <r>    6.8746    1.0000 </r>
       <r>    6.9447    1.0000 </r>
       <r>    6.9447    1.0000 </r>
       <r>    7.1866    1.0000 </r>
       <r>    8.1367    1.0015 </r>
       <r>    8.2532    1.0473 </r>
       <r>    8.7030   -0.0406 </r>
       <r>    8.7030   -0.0406 </r>
       <r>   14.0901    0.0000 </r>
       <r>   14.0901    0.0000 </r>
      </set>
      <set comment="kpoint 42">
       <r>    0.1448    1.0000 </r>
       <r>    1.3974    1.0000 </r>
       <r>    2.3915    1.0000 </r>
       <r>    2.3915    1.0000 </r>
       <r>    2.5032    1.0000 </r>
       <r>    2.9815    1.0000 </r>
       <r>    2.9815    1.0000 </r>
       <r>    3.2906    1.0000 </r>
       <r>    4.3768    1.0000 </r>
       <r>    4.3768    1.0000 </r>
       <r>    5.0561    1.0000 </r>
       <r>    5.0623    1.0000 </r>
       <r>    5.5045    1.0000 </r>
       <r>    6.1756    1.0000 </r>
       <r>    6.5047    1.0000 </r>
       <r>    6.6237    1.0000 </r>
       <r>    6.6237    1.0000 </r>
       <r>    7.3849    1.0000 </r>
       <r>    7.5105    1.0000 </r>
       <r>    8.0412    0.9954 </r>
       <r>    8.6901   -0.0458 </r>
       <r>    8.6901   -0.0458 </r>
       <r>   14.5917    0.0000 </r>
       <r>   14.5917    0.0000 </r>
      </set>
      <set comment="kpoint 43">
       <r>    0.6542    1.0000 </r>
       <r>    1.0979    1.0000 </r>
       <r>    2.5973    1.0000 </r>
       <r>    2.5973    1.0000 </r>
       <r>    2.7535    1.0000 </r>
       <r>    3.0189    1.0000 </r>
       <r>    3.2852    1.0000 </r>
       <r>    3.2852    1.0000 </r>
       <r>    3.9237    1.0000 </r>
       <r>    3.9237    1.0000 </r>
       <r>    4.9106    1.0000 </r>
       <r>    4.9456    1.0000 </r>
       <r>    5.8096    1.0000 </r>
       <r>    6.1458    1.0000 </r>
       <r>    6.4260    1.0000 </r>
       <r>    6.4260    1.0000 </r>
       <r>    6.5080    1.0000 </r>
       <r>    6.9643    1.0000 </r>
       <r>    7.5986    1.0000 </r>
       <r>    7.8201    0.9999 </r>
       <r>    8.6842   -0.0478 </r>
       <r>    8.6842   -0.0478 </r>
       <r>   14.8372    0.0000 </r>
       <r>   14.8372    0.0000 </r>
      </set>
      <set comment="kpoint 44">
       <r>   -1.3217    1.0000 </r>
       <r>    1.4449    1.0000 </r>
       <r>    1.4449    1.0000 </r>
       <r>    1.4648    1.0000 </r>
       <r>    1.9286    1.0000 </r>
       <r>    1.9286    1.0000 </r>
       <r>    2.0123    1.0000 </r>
       <r>    4.1359    1.0000 </r>
       <r>    4.7242    1.0000 </r>
       <r>    4.7486    1.0000 </r>
       <r>    6.5053    1.0000 </r>
       <r>    6.5148    1.0000 </r>
       <r>    6.5148    1.0000 </r>
       <r>    6.5256    1.0000 </r>
       <r>    6.7392    1.0000 </r>
       <r>    7.6330    1.0000 </r>
       <r>    7.6800    1.0000 </r>
       <r>    7.6800    1.0000 </r>
       <r>    8.7289   -0.0285 </r>
       <r>    8.7289   -0.0285 </r>
       <r>    8.7441   -0.0214 </r>
       <r>   11.0806    0.0000 </r>
       <r>   11.0806    0.0000 </r>
       <r>   12.4683    0.0000 </r>
      </set>
      <set comment="kpoint 45">
       <r>   -1.0282    1.0000 </r>
       <r>    1.5434    1.0000 </r>
       <r>    1.6217    1.0000 </r>
       <r>    1.6401    1.0000 </r>
       <r>    2.0573    1.0000 </r>
       <r>    2.1491    1.0000 </r>
       <r>    2.2475    1.0000 </r>
       <r>    4.0088    1.0000 </r>
       <r>    4.8323    1.0000 </r>
       <r>    4.8475    1.0000 </r>
       <r>    5.8764    1.0000 </r>
       <r>    6.0156    1.0000 </r>
       <r>    6.0306    1.0000 </r>
       <r>    6.3716    1.0000 </r>
       <r>    6.8527    1.0000 </r>
       <r>    7.3838    1.0000 </r>
       <r>    7.3918    1.0000 </r>
       <r>    7.4811    1.0000 </r>
       <r>    8.6062   -0.0165 </r>
       <r>    8.6569   -0.0515 </r>
       <r>    8.6626   -0.0516 </r>
       <r>   10.2297    0.0000 </r>
       <r>   11.7962    0.0000 </r>
       <r>   13.1548    0.0000 </r>
      </set>
      <set comment="kpoint 46">
       <r>   -0.6511    1.0000 </r>
       <r>    1.6270    1.0000 </r>
       <r>    1.8352    1.0000 </r>
       <r>    1.8890    1.0000 </r>
       <r>    2.2233    1.0000 </r>
       <r>    2.4242    1.0000 </r>
       <r>    2.5245    1.0000 </r>
       <r>    3.8246    1.0000 </r>
       <r>    4.9435    1.0000 </r>
       <r>    5.0031    1.0000 </r>
       <r>    5.2520    1.0000 </r>
       <r>    5.4552    1.0000 </r>
       <r>    5.5186    1.0000 </r>
       <r>    6.2280    1.0000 </r>
       <r>    7.0284    1.0000 </r>
       <r>    7.0552    1.0000 </r>
       <r>    7.1084    1.0000 </r>
       <r>    7.2252    1.0000 </r>
       <r>    8.4181    0.7579 </r>
       <r>    8.5821    0.0287 </r>
       <r>    8.5843    0.0236 </r>
       <r>    9.4330    0.0000 </r>
       <r>   12.4925    0.0000 </r>
       <r>   13.8501    0.0000 </r>
      </set>
      <set comment="kpoint 47">
       <r>   -0.2052    1.0000 </r>
       <r>    1.6415    1.0000 </r>
       <r>    2.1004    1.0000 </r>
       <r>    2.1802    1.0000 </r>
       <r>    2.4189    1.0000 </r>
       <r>    2.7273    1.0000 </r>
       <r>    2.8081    1.0000 </r>
       <r>    3.6032    1.0000 </r>
       <r>    4.6759    1.0000 </r>
       <r>    4.9036    1.0000 </r>
       <r>    4.9877    1.0000 </r>
       <r>    5.0680    1.0000 </r>
       <r>    5.2044    1.0000 </r>
       <r>    6.1889    1.0000 </r>
       <r>    6.7006    1.0000 </r>
       <r>    6.8100    1.0000 </r>
       <r>    6.9237    1.0000 </r>
       <r>    7.2413    1.0000 </r>
       <r>    8.1208    0.9986 </r>
       <r>    8.5249    0.2235 </r>
       <r>    8.5251    0.2227 </r>
       <r>    8.7750   -0.0090 </r>
       <r>   13.1217    0.0000 </r>
       <r>   14.4356    0.0000 </r>
      </set>
      <set comment="kpoint 48">
       <r>    0.2850    1.0000 </r>
       <r>    1.5169    1.0000 </r>
       <r>    2.4011    1.0000 </r>
       <r>    2.4870    1.0000 </r>
       <r>    2.6358    1.0000 </r>
       <r>    3.0060    1.0000 </r>
       <r>    3.0414    1.0000 </r>
       <r>    3.3615    1.0000 </r>
       <r>    4.1907    1.0000 </r>
       <r>    4.4060    1.0000 </r>
       <r>    4.7760    1.0000 </r>
       <r>    4.9105    1.0000 </r>
       <r>    5.4404    1.0000 </r>
       <r>    6.3496    1.0000 </r>
       <r>    6.3499    1.0000 </r>
       <r>    6.5417    1.0000 </r>
       <r>    6.6294    1.0000 </r>
       <r>    7.4807    1.0000 </r>
       <r>    7.6637    1.0000 </r>
       <r>    8.3304    1.0197 </r>
       <r>    8.4879    0.4029 </r>
       <r>    8.4891    0.3969 </r>
       <r>   13.6484    0.0000 </r>
       <r>   14.5864    0.0000 </r>
      </set>
      <set comment="kpoint 49">
       <r>    0.7796    1.0000 </r>
       <r>    1.2161    1.0000 </r>
       <r>    2.6772    1.0000 </r>
       <r>    2.7236    1.0000 </r>
       <r>    2.8688    1.0000 </r>
       <r>    3.1131    1.0000 </r>
       <r>    3.1548    1.0000 </r>
       <r>    3.1578    1.0000 </r>
       <r>    3.9195    1.0000 </r>
       <r>    4.0302    1.0000 </r>
       <r>    4.6925    1.0000 </r>
       <r>    4.7723    1.0000 </r>
       <r>    5.7120    1.0000 </r>
       <r>    6.0169    1.0000 </r>
       <r>    6.3903    1.0000 </r>
       <r>    6.4246    1.0000 </r>
       <r>    6.6912    1.0000 </r>
       <r>    7.1490    1.0000 </r>
       <r>    7.7394    1.0000 </r>
       <r>    8.0157    0.9963 </r>
       <r>    8.4711    0.4913 </r>
       <r>    8.4717    0.4881 </r>
       <r>   14.0596    0.0000 </r>
       <r>   14.3727    0.0000 </r>
      </set>
      <set comment="kpoint 50">
       <r>   -0.7515    1.0000 </r>
       <r>    1.7335    1.0000 </r>
       <r>    1.7343    1.0000 </r>
       <r>    1.7343    1.0000 </r>
       <r>    2.2774    1.0000 </r>
       <r>    2.2774    1.0000 </r>
       <r>    2.4869    1.0000 </r>
       <r>    3.9443    1.0000 </r>
       <r>    4.8833    1.0000 </r>
       <r>    4.9025    1.0000 </r>
       <r>    5.4474    1.0000 </r>
       <r>    5.4474    1.0000 </r>
       <r>    5.6829    1.0000 </r>
       <r>    6.3266    1.0000 </r>
       <r>    6.9488    1.0000 </r>
       <r>    7.1255    1.0000 </r>
       <r>    7.2330    1.0000 </r>
       <r>    7.2330    1.0000 </r>
       <r>    8.5119    0.2832 </r>
       <r>    8.5119    0.2832 </r>
       <r>    8.5450    0.1416 </r>
       <r>   10.9074    0.0000 </r>
       <r>   10.9074    0.0000 </r>
       <r>   13.7628    0.0000 </r>
      </set>
      <set comment="kpoint 51">
       <r>   -0.3960    1.0000 </r>
       <r>    1.8103    1.0000 </r>
       <r>    1.9017    1.0000 </r>
       <r>    1.9772    1.0000 </r>
       <r>    2.4429    1.0000 </r>
       <r>    2.5515    1.0000 </r>
       <r>    2.7519    1.0000 </r>
       <r>    3.8221    1.0000 </r>
       <r>    4.8802    1.0000 </r>
       <r>    4.9167    1.0000 </r>
       <r>    5.0125    1.0000 </r>
       <r>    5.0270    1.0000 </r>
       <r>    5.2686    1.0000 </r>
       <r>    6.2422    1.0000 </r>
       <r>    6.8712    1.0000 </r>
       <r>    6.9166    1.0000 </r>
       <r>    7.0413    1.0000 </r>
       <r>    7.1501    1.0000 </r>
       <r>    8.3012    1.0462 </r>
[...]
       <r>    9.1044    0.0001 </r>
       <r>    9.6544    0.0000 </r>
       <r>    9.6544    0.0000 </r>
       <r>   10.1074    0.0000 </r>
      </set>
      <set comment="kpoint 117">
       <r>    0.7837    1.0000 </r>
       <r>    1.0722    1.0000 </r>
       <r>    1.0722    1.0000 </r>
       <r>    1.0722    1.0000 </r>
       <r>    4.1513    1.0000 </r>
       <r>    4.1513    1.0000 </r>
       <r>    4.1513    1.0000 </r>
       <r>    4.4801    1.0000 </r>
       <r>    4.4801    1.0000 </r>
       <r>    4.6485    1.0000 </r>
       <r>    4.6485    1.0000 </r>
       <r>    4.6485    1.0000 </r>
       <r>    6.3429    1.0000 </r>
       <r>    6.3429    1.0000 </r>
       <r>    6.3429    1.0000 </r>
       <r>    6.5549    1.0000 </r>
       <r>    8.1802    1.0151 </r>
       <r>    8.1802    1.0151 </r>
       <r>    8.5386    0.1662 </r>
       <r>    8.5386    0.1662 </r>
       <r>    8.5386    0.1662 </r>
       <r>   10.0003    0.0000 </r>
       <r>   10.0003    0.0000 </r>
       <r>   10.0003    0.0000 </r>
      </set>
      <set comment="kpoint 118">
       <r>    0.8215    1.0000 </r>
       <r>    0.9183    1.0000 </r>
       <r>    1.0108    1.0000 </r>
       <r>    1.0108    1.0000 </r>
       <r>    4.1957    1.0000 </r>
       <r>    4.1957    1.0000 </r>
       <r>    4.2963    1.0000 </r>
       <r>    4.4081    1.0000 </r>
       <r>    4.4781    1.0000 </r>
       <r>    4.5348    1.0000 </r>
       <r>    4.5761    1.0000 </r>
       <r>    4.5761    1.0000 </r>
       <r>    6.6513    1.0000 </r>
       <r>    6.6518    1.0000 </r>
       <r>    6.6518    1.0000 </r>
       <r>    6.7986    1.0000 </r>
       <r>    8.3896    0.8740 </r>
       <r>    8.4484    0.6105 </r>
       <r>    8.4870    0.4079 </r>
       <r>    8.4870    0.4079 </r>
       <r>    8.5121    0.2823 </r>
       <r>    9.1381    0.0001 </r>
       <r>    9.9540    0.0000 </r>
       <r>    9.9540    0.0000 </r>
      </set>
      <set comment="kpoint 119">
       <r>    0.8212    1.0000 </r>
       <r>    0.8846    1.0000 </r>
       <r>    0.8846    1.0000 </r>
       <r>    0.9156    1.0000 </r>
       <r>    4.2780    1.0000 </r>
       <r>    4.3119    1.0000 </r>
       <r>    4.3119    1.0000 </r>
       <r>    4.3926    1.0000 </r>
       <r>    4.4343    1.0000 </r>
       <r>    4.4757    1.0000 </r>
       <r>    4.4757    1.0000 </r>
       <r>    4.4894    1.0000 </r>
       <r>    7.0082    1.0000 </r>
       <r>    7.0311    1.0000 </r>
       <r>    7.0311    1.0000 </r>
       <r>    7.1664    1.0000 </r>
       <r>    8.3375    1.0091 </r>
       <r>    8.4560    0.5711 </r>
       <r>    8.4560    0.5711 </r>
       <r>    8.4611    0.5440 </r>
       <r>    8.7407   -0.0229 </r>
       <r>    9.2558    0.0000 </r>
       <r>    9.2558    0.0000 </r>
       <r>    9.5486    0.0000 </r>
      </set>
      <set comment="kpoint 120">
       <r>    0.7855    1.0000 </r>
       <r>    0.8171    1.0000 </r>
       <r>    0.8171    1.0000 </r>
       <r>    0.8171    1.0000 </r>
       <r>    4.3545    1.0000 </r>
       <r>    4.3545    1.0000 </r>
       <r>    4.3545    1.0000 </r>
       <r>    4.3935    1.0000 </r>
       <r>    4.3935    1.0000 </r>
       <r>    4.4120    1.0000 </r>
       <r>    4.4120    1.0000 </r>
       <r>    4.4120    1.0000 </r>
       <r>    7.5282    1.0000 </r>
       <r>    7.5282    1.0000 </r>
       <r>    7.5282    1.0000 </r>
       <r>    7.7263    1.0000 </r>
       <r>    8.4769    0.4603 </r>
       <r>    8.4769    0.4603 </r>
       <r>    8.5192    0.2490 </r>
       <r>    8.5192    0.2490 </r>
       <r>    8.5192    0.2490 </r>
       <r>    8.9010    0.0045 </r>
       <r>    8.9010    0.0045 </r>
       <r>    8.9010    0.0045 </r>
      </set>
     </set>
    </set>
   </array>
  </eigenvalues>
  <separator name="orbital magnetization" >
   <v name="MAGDIPOLOUT">      0.00000000      0.00000000      0.00000000</v>
  </separator>
  <dos>
   <i name="efermi">      8.46944215 </i>
   <total>
    <array>
     <dimension dim="1">gridpoints</dimension>
     <dimension dim="2">spin</dimension>
     <field>energy</field>
     <field>total</field>
     <field>integrated</field>
     <set>
      <set comment="spin 1">
       <r>    -4.0503     0.0000     0.0000 </r>
       <r>    -3.9780     0.0000     0.0000 </r>
       <r>    -3.9056     0.0000     0.0000 </r>
       <r>    -3.8333     0.0000     0.0000 </r>
       <r>    -3.7610     0.0000     0.0000 </r>
       <r>    -3.6886     0.0000     0.0000 </r>
       <r>    -3.6163     0.0000     0.0000 </r>
       <r>    -3.5440     0.0000     0.0000 </r>
       <r>    -3.4716     0.0000     0.0000 </r>
       <r>    -3.3993     0.0000     0.0000 </r>
       <r>    -3.3269     0.0000     0.0000 </r>
       <r>    -3.2546     0.0000     0.0000 </r>
       <r>    -3.1823     0.0000     0.0000 </r>
       <r>    -3.1099     0.0000     0.0000 </r>
       <r>    -3.0376     0.0000     0.0000 </r>
       <r>    -2.9653     0.0000     0.0000 </r>
       <r>    -2.8929     0.0000     0.0000 </r>
       <r>    -2.8206     0.0000     0.0000 </r>
       <r>    -2.7483     0.0000     0.0000 </r>
       <r>    -2.6759     0.0000     0.0000 </r>
       <r>    -2.6036     0.0000     0.0000 </r>
       <r>    -2.5312     0.0002     0.0000 </r>
       <r>    -2.4589     0.0003     0.0000 </r>
       <r>    -2.3866     0.0002     0.0001 </r>
       <r>    -2.3142    -0.0010    -0.0000 </r>
       <r>    -2.2419    -0.0031    -0.0002 </r>
       <r>    -2.1696    -0.0018    -0.0004 </r>
       <r>    -2.0972     0.0107     0.0004 </r>
       <r>    -2.0249     0.0381     0.0032 </r>
       <r>    -1.9526     0.0720     0.0084 </r>
       <r>    -1.8802     0.0990     0.0155 </r>
       <r>    -1.8079     0.1194     0.0242 </r>
       <r>    -1.7355     0.1441     0.0346 </r>
       <r>    -1.6632     0.1691     0.0468 </r>
       <r>    -1.5909     0.1750     0.0595 </r>
       <r>    -1.5185     0.1685     0.0717 </r>
       <r>    -1.4462     0.1874     0.0852 </r>
       <r>    -1.3739     0.2358     0.1023 </r>
       <r>    -1.3015     0.2625     0.1213 </r>
       <r>    -1.2292     0.2433     0.1389 </r>
       <r>    -1.1569     0.2259     0.1552 </r>
       <r>    -1.0845     0.2494     0.1732 </r>
       <r>    -1.0122     0.2880     0.1941 </r>
       <r>    -0.9399     0.3131     0.2167 </r>
       <r>    -0.8675     0.3349     0.2409 </r>
       <r>    -0.7952     0.3555     0.2667 </r>
       <r>    -0.7228     0.3483     0.2919 </r>
       <r>    -0.6505     0.3113     0.3144 </r>
       <r>    -0.5782     0.3018     0.3362 </r>
       <r>    -0.5058     0.3704     0.3630 </r>
       <r>    -0.4335     0.4714     0.3971 </r>
       <r>    -0.3612     0.5100     0.4340 </r>
       <r>    -0.2888     0.4640     0.4675 </r>
       <r>    -0.2165     0.3938     0.4960 </r>
       <r>    -0.1442     0.3809     0.5236 </r>
       <r>    -0.0718     0.4661     0.5573 </r>
       <r>     0.0005     0.5829     0.5995 </r>
       <r>     0.0729     0.6152     0.6440 </r>
       <r>     0.1452     0.5681     0.6851 </r>
       <r>     0.2175     0.5643     0.7259 </r>
       <r>     0.2899     0.6444     0.7725 </r>
       <r>     0.3622     0.7117     0.8240 </r>
       <r>     0.4345     0.7034     0.8749 </r>
       <r>     0.5069     0.6788     0.9240 </r>
       <r>     0.5792     0.7408     0.9775 </r>
       <r>     0.6515     0.9468     1.0460 </r>
       <r>     0.7239     1.2369     1.1355 </r>
       <r>     0.7962     1.4842     1.2429 </r>
       <r>     0.8686     1.6949     1.3655 </r>
       <r>     0.9409     1.9824     1.5089 </r>
       <r>     1.0132     2.3056     1.6756 </r>
       <r>     1.0856     2.5230     1.8581 </r>
       <r>     1.1579     2.6644     2.0509 </r>
       <r>     1.2302     2.8808     2.2593 </r>
       <r>     1.3026     3.2292     2.4928 </r>
       <r>     1.3749     3.6176     2.7545 </r>
       <r>     1.4472     3.9362     3.0393 </r>
       <r>     1.5196     4.2418     3.3461 </r>
       <r>     1.5919     4.6204     3.6803 </r>
       <r>     1.6642     4.9896     4.0412 </r>
       <r>     1.7366     5.3275     4.4266 </r>
       <r>     1.8089     5.6743     4.8371 </r>
       <r>     1.8813     5.8219     5.2582 </r>
       <r>     1.9536     5.6302     5.6655 </r>
       <r>     2.0259     5.4138     6.0571 </r>
       <r>     2.0983     5.4049     6.4481 </r>
       <r>     2.1706     5.3263     6.8333 </r>
       <r>     2.2429     5.0058     7.1954 </r>
       <r>     2.3153     4.7921     7.5421 </r>
       <r>     2.3876     4.9101     7.8973 </r>
       <r>     2.4599     5.0329     8.2613 </r>
       <r>     2.5323     4.8753     8.6140 </r>
       <r>     2.6046     4.6090     8.9474 </r>
       <r>     2.6770     4.3720     9.2636 </r>
       <r>     2.7493     3.9717     9.5509 </r>
       <r>     2.8216     3.4044     9.7972 </r>
       <r>     2.8940     3.1363    10.0241 </r>
       <r>     2.9663     3.4851    10.2762 </r>
       <r>     3.0386     4.1274    10.5747 </r>
       <r>     3.1110     4.5659    10.9050 </r>
       <r>     3.1833     4.7333    11.2474 </r>
       <r>     3.2556     4.8455    11.5979 </r>
       <r>     3.3280     5.0167    11.9608 </r>
       <r>     3.4003     5.1970    12.3367 </r>
       <r>     3.4727     5.2763    12.7184 </r>
       <r>     3.5450     5.2300    13.0967 </r>
       <r>     3.6173     5.1362    13.4682 </r>
       <r>     3.6897     5.0558    13.8339 </r>
       <r>     3.7620     5.0643    14.2003 </r>
       <r>     3.8343     5.2931    14.5832 </r>
       <r>     3.9067     5.7005    14.9955 </r>
       <r>     3.9790     5.9320    15.4246 </r>
       <r>     4.0513     5.7726    15.8422 </r>
       <r>     4.1237     5.5361    16.2426 </r>
       <r>     4.1960     5.5568    16.6446 </r>
       <r>     4.2684     5.7696    17.0619 </r>
       <r>     4.3407     6.1419    17.5062 </r>
       <r>     4.4130     6.7472    17.9943 </r>
       <r>     4.4854     7.2789    18.5208 </r>
       <r>     4.5577     7.3544    19.0528 </r>
       <r>     4.6300     7.2459    19.5770 </r>
       <r>     4.7024     7.5710    20.1246 </r>
       <r>     4.7747     8.3940    20.7318 </r>
       <r>     4.8470     9.1032    21.3903 </r>
       <r>     4.9194     9.0928    22.0480 </r>
       <r>     4.9917     8.3086    22.6490 </r>
       <r>     5.0640     7.1164    23.1638 </r>
       <r>     5.1364     5.9347    23.5931 </r>
       <r>     5.2087     5.1125    23.9629 </r>
       <r>     5.2811     4.7622    24.3074 </r>
       <r>     5.3534     4.6393    24.6430 </r>
       <r>     5.4257     4.4878    24.9676 </r>
       <r>     5.4981     4.3672    25.2835 </r>
       <r>     5.5704     4.4352    25.6044 </r>
       <r>     5.6427     4.5571    25.9340 </r>
       <r>     5.7151     4.4141    26.2533 </r>
       <r>     5.7874     4.0605    26.5470 </r>
       <r>     5.8597     3.9630    26.8337 </r>
       <r>     5.9321     4.2978    27.1446 </r>
       <r>     6.0044     4.6891    27.4838 </r>
       <r>     6.0768     4.8690    27.8360 </r>
       <r>     6.1491     5.0469    28.2010 </r>
       <r>     6.2214     5.4174    28.5929 </r>
       <r>     6.2938     5.8518    29.0162 </r>
       <r>     6.3661     6.1025    29.4576 </r>
       <r>     6.4384     5.9835    29.8905 </r>
       <r>     6.5108     5.6039    30.2958 </r>
       <r>     6.5831     5.3433    30.6823 </r>
       <r>     6.6554     5.2653    31.0632 </r>
       <r>     6.7278     4.9957    31.4246 </r>
       <r>     6.8001     4.4298    31.7450 </r>
       <r>     6.8725     4.0305    32.0366 </r>
       <r>     6.9448     4.2053    32.3408 </r>
       <r>     7.0171     4.7342    32.6832 </r>
       <r>     7.0895     4.9697    33.0427 </r>
       <r>     7.1618     4.5314    33.3705 </r>
       <r>     7.2341     3.8060    33.6458 </r>
       <r>     7.3065     3.5708    33.9041 </r>
       <r>     7.3788     3.9871    34.1925 </r>
       <r>     7.4511     4.4119    34.5117 </r>
       <r>     7.5235     4.3780    34.8283 </r>
       <r>     7.5958     4.1485    35.1284 </r>
       <r>     7.6681     4.1309    35.4272 </r>
       <r>     7.7405     4.2860    35.7373 </r>
       <r>     7.8128     4.3382    36.0511 </r>
       <r>     7.8852     4.2949    36.3618 </r>
       <r>     7.9575     4.4453    36.6833 </r>
       <r>     8.0298     4.8816    37.0364 </r>
       <r>     8.1022     5.4196    37.4285 </r>
       <r>     8.1745     5.9806    37.8611 </r>
       <r>     8.2468     6.5857    38.3375 </r>
       <r>     8.3192     7.1244    38.8528 </r>
       <r>     8.3915     7.5216    39.3969 </r>
       <r>     8.4638     7.7411    39.9569 </r>
       <r>     8.5362     7.4507    40.4958 </r>
       <r>     8.6085     6.3723    40.9568 </r>
       <r>     8.6809     4.9984    41.3183 </r>
       <r>     8.7532     4.1724    41.6201 </r>
       <r>     8.8255     3.9736    41.9076 </r>
       <r>     8.8979     3.7026    42.1754 </r>
       <r>     8.9702     2.8677    42.3828 </r>
       <r>     9.0425     1.6796    42.5043 </r>
       <r>     9.1149     0.7346    42.5575 </r>
       <r>     9.1872     0.4732    42.5917 </r>
       <r>     9.2595     0.8600    42.6539 </r>
       <r>     9.3319     1.4777    42.7608 </r>
       <r>     9.4042     1.8256    42.8929 </r>
       <r>     9.4766     1.6175    43.0099 </r>
       <r>     9.5489     1.0203    43.0837 </r>
       <r>     9.6212     0.5012    43.1199 </r>
       <r>     9.6936     0.3342    43.1441 </r>
       <r>     9.7659     0.4825    43.1790 </r>
       <r>     9.8382     0.8894    43.2433 </r>
       <r>     9.9106     1.4633    43.3492 </r>
       <r>     9.9829     1.8450    43.4827 </r>
       <r>    10.0552     1.6814    43.6043 </r>
       <r>    10.1276     1.1339    43.6863 </r>
       <r>    10.1999     0.7047    43.7373 </r>
       <r>    10.2723     0.6484    43.7842 </r>
       <r>    10.3446     0.8395    43.8449 </r>
       <r>    10.4169     1.0247    43.9190 </r>
       <r>    10.4893     1.0662    43.9962 </r>
       <r>    10.5616     1.0535    44.0724 </r>
       <r>    10.6339     1.1227    44.1536 </r>
       <r>    10.7063     1.2020    44.2405 </r>
       <r>    10.7786     1.1579    44.3243 </r>
       <r>    10.8509     1.0397    44.3995 </r>
       <r>    10.9233     0.9632    44.4692 </r>
       <r>    10.9956     0.9929    44.5410 </r>
       <r>    11.0679     1.1646    44.6252 </r>
       <r>    11.1403     1.3263    44.7212 </r>
       <r>    11.2126     1.2001    44.8080 </r>
       <r>    11.2850     0.8493    44.8694 </r>
       <r>    11.3573     0.6823    44.9188 </r>
       <r>    11.4296     0.8840    44.9827 </r>
       <r>    11.5020     1.2048    45.0699 </r>
       <r>    11.5743     1.3058    45.1643 </r>
       <r>    11.6466     1.1063    45.2443 </r>
       <r>    11.7190     0.8366    45.3049 </r>
       <r>    11.7913     0.7752    45.3609 </r>
       <r>    11.8636     0.9370    45.4287 </r>
       <r>    11.9360     1.1230    45.5100 </r>
       <r>    12.0083     1.1891    45.5960 </r>
       <r>    12.0807     1.1329    45.6779 </r>
       <r>    12.1530     1.0195    45.7517 </r>
       <r>    12.2253     0.9110    45.8176 </r>
       <r>    12.2977     0.8578    45.8796 </r>
       <r>    12.3700     0.9002    45.9447 </r>
       <r>    12.4423     1.0076    46.0176 </r>
       <r>    12.5147     1.0836    46.0960 </r>
       <r>    12.5870     1.0620    46.1728 </r>
       <r>    12.6593     0.9236    46.2396 </r>
       <r>    12.7317     0.7079    46.2908 </r>
       <r>    12.8040     0.5832    46.3330 </r>
       <r>    12.8764     0.7148    46.3847 </r>
       <r>    12.9487     0.9920    46.4565 </r>
       <r>    13.0210     1.1431    46.5392 </r>
       <r>    13.0934     1.1079    46.6193 </r>
       <r>    13.1657     0.9968    46.6914 </r>
       <r>    13.2380     0.8642    46.7539 </r>
       <r>    13.3104     0.7850    46.8107 </r>
       <r>    13.3827     0.8294    46.8707 </r>
       <r>    13.4550     0.8762    46.9341 </r>
       <r>    13.5274     0.7689    46.9897 </r>
       <r>    13.5997     0.5567    47.0300 </r>
       <r>    13.6720     0.4271    47.0609 </r>
       <r>    13.7444     0.5544    47.1010 </r>
       <r>    13.8167     0.9205    47.1676 </r>
       <r>    13.8891     1.1949    47.2540 </r>
       <r>    13.9614     1.0903    47.3329 </r>
       <r>    14.0337     0.7733    47.3888 </r>
       <r>    14.1061     0.5716    47.4302 </r>
       <r>    14.1784     0.5349    47.4689 </r>
       <r>    14.2507     0.5597    47.5094 </r>
       <r>    14.3231     0.6142    47.5538 </r>
       <r>    14.3954     0.6862    47.6034 </r>
       <r>    14.4677     0.7386    47.6568 </r>
       <r>    14.5401     0.7343    47.7100 </r>
       <r>    14.6124     0.6411    47.7563 </r>
       <r>    14.6848     0.4951    47.7922 </r>
       <r>    14.7571     0.4114    47.8219 </r>
       <r>    14.8294     0.4166    47.8520 </r>
       <r>    14.9018     0.3964    47.8807 </r>
       <r>    14.9741     0.2930    47.9019 </r>
       <r>    15.0464     0.1833    47.9152 </r>
       <r>    15.1188     0.1353    47.9250 </r>
       <r>    15.1911     0.1342    47.9347 </r>
       <r>    15.2634     0.1445    47.9451 </r>
       <r>    15.3358     0.1489    47.9559 </r>
       <r>    15.4081     0.1348    47.9656 </r>
       <r>    15.4805     0.1019    47.9730 </r>
       <r>    15.5528     0.0824    47.9790 </r>
       <r>    15.6251     0.0985    47.9861 </r>
       <r>    15.6975     0.1102    47.9941 </r>
       <r>    15.7698     0.0758    47.9996 </r>
       <r>    15.8421     0.0214    48.0011 </r>
       <r>    15.9145    -0.0073    48.0006 </r>
       <r>    15.9868    -0.0079    48.0000 </r>
       <r>    16.0591    -0.0017    47.9999 </r>
       <r>    16.1315     0.0007    47.9999 </r>
       <r>    16.2038     0.0006    48.0000 </r>
       <r>    16.2761     0.0002    48.0000 </r>
       <r>    16.3485     0.0000    48.0000 </r>
       <r>    16.4208     0.0000    48.0000 </r>
       <r>    16.4932     0.0000    48.0000 </r>
       <r>    16.5655     0.0000    48.0000 </r>
       <r>    16.6378     0.0000    48.0000 </r>
       <r>    16.7102     0.0000    48.0000 </r>
       <r>    16.7825     0.0000    48.0000 </r>
       <r>    16.8548     0.0000    48.0000 </r>
       <r>    16.9272     0.0000    48.0000 </r>
       <r>    16.9995     0.0000    48.0000 </r>
       <r>    17.0718     0.0000    48.0000 </r>
       <r>    17.1442     0.0000    48.0000 </r>
       <r>    17.2165     0.0000    48.0000 </r>
       <r>    17.2889     0.0000    48.0000 </r>
       <r>    17.3612     0.0000    48.0000 </r>
       <r>    17.4335     0.0000    48.0000 </r>
       <r>    17.5059     0.0000    48.0000 </r>
       <r>    17.5782     0.0000    48.0000 </r>
       <r>    17.6505     0.0000    48.0000 </r>
      </set>
     </set>
    </array>
   </total>
  </dos>
 </calculation>
 <structure name="finalpos" >
  <crystal>
   <varray name="basis" >
    <v>       3.88000000       0.00000000       0.00000000 </v>
    <v>       0.00000000       3.88000000       0.00000000 </v>
    <v>       0.00000000       0.00000000       3.88000000 </v>
   </varray>
   <i name="volume">     58.41107200 </i>
   <varray name="rec_basis" >
    <v>       0.25773196       0.00000000       0.00000000 </v>
    <v>       0.00000000       0.25773196       0.00000000 </v>
    <v>       0.00000000       0.00000000       0.25773196 </v>
   </varray>
  </crystal>
  <varray name="positions" >
   <v>       0.00000000       0.00000000       0.00000000 </v>
   <v>       0.00000000       0.50000000       0.50000000 </v>
   <v>       0.50000000       0.00000000       0.50000000 </v>
   <v>       0.50000000       0.50000000       0.00000000 </v>
  </varray>
 </structure>
</modeling>
