This job started on
Tue Jan 22 12:57:33 CET 2019
 running on   16 total cores
 distrk:  each k-point on   16 cores,    1 groups
 distr:  one band on    8 cores,    2 groups
 using from now: INCAR     
 vasp.5.4.4.18Apr17-6-g9f103f2a35 (build Apr 17 2018 18:25:23) complex          
  
 POSCAR found :  1 types and       4 ions

 ----------------------------------------------------------------------------- 
|                                                                             |
|  ADVICE TO THIS USER RUNNING 'VASP/VAMP'   (HEAR YOUR MASTER'S VOICE ...):  |
|                                                                             |
|      You enforced a specific xc-type in the INCAR file,                     |
|      a different type was found on the POTCAR file                          |
|          I HOPE YOU KNOW, WHAT YOU ARE  DOING                               |
|                                                                             |
 ----------------------------------------------------------------------------- 

 LDA part: xc-table for Ceperly-Alder, standard interpolation
 POSCAR found :  1 types and       4 ions
 POSCAR, INCAR and KPOINTS ok, starting setup
 FFT: planning ...
 WAVECAR not read
 entering main loop
       N       E                     dE             d eps       ncg     rms          rms(c)
DAV:   1     0.429955762946E+03    0.42996E+03   -0.17170E+04  5768   0.148E+03
DAV:   2     0.461017049236E+01   -0.42535E+03   -0.41252E+03  5792   0.511E+02
DAV:   3    -0.250665699246E+02   -0.29677E+02   -0.28742E+02  7992   0.118E+02
DAV:   4    -0.260117707922E+02   -0.94520E+00   -0.93776E+00  6128   0.288E+01
DAV:   5    -0.260413949542E+02   -0.29624E-01   -0.29606E-01  7328   0.326E+00    0.770E+00
DAV:   6    -0.244437678101E+02    0.15976E+01   -0.43197E+00  7240   0.227E+01    0.198E+00
DAV:   7    -0.243384562660E+02    0.10531E+00   -0.37852E-01  8856   0.591E+00    0.594E-01
DAV:   8    -0.243261965710E+02    0.12260E-01   -0.15782E-02  5992   0.157E+00    0.984E-02
DAV:   9    -0.243258972547E+02    0.29932E-03   -0.16727E-03  7744   0.442E-01    0.237E-02
DAV:  10    -0.243259134373E+02   -0.16183E-04   -0.42806E-05  6544   0.385E-02    0.404E-03
DAV:  11    -0.243259155587E+02   -0.21215E-05   -0.14595E-06  4336   0.137E-02    0.437E-04
DAV:  12    -0.243259152722E+02    0.28659E-06   -0.28300E-07  3152   0.463E-03
   1 F= -.24325915E+02 E0= -.24324308E+02  d E =-.243259E+02
 curvature:   0.00 expect dE= 0.000E+00 dE for cont linesearch  0.000E+00
 trial: gam= 0.00000 g(F)=  0.108E-59 g(S)=  0.000E+00 ort = 0.000E+00 (trialstep = 0.100E+01)
 search vector abs. value=  0.100E-09
 reached required accuracy - stopping structural energy minimisation
 writing wavefunctions
This job finished on
Tue Jan 22 12:57:53 CET 2019
