<?xml version="1.0" encoding="ISO-8859-1"?>
<modeling>
 <generator>
  <i name="program" type="string">vasp </i>
  <i name="version" type="string">5.4.4.18Apr17-6-g9f103f2a35  </i>
  <i name="subversion" type="string">(build Apr 17 2018 18:25:23) complex            parallel </i>
  <i name="platform" type="string">LinuxIFC </i>
  <i name="date" type="string">2019 01 22 </i>
  <i name="time" type="string">12:57:34 </i>
 </generator>
 <incar>
  <i type="string" name="SYSTEM"> Pt bulk calculation</i>
  <i type="int" name="ISTART">     0</i>
  <i type="string" name="PREC">normal</i>
  <i type="string" name="ALGO"> NORMAL</i>
  <i type="int" name="ICHARG">     2</i>
  <i type="int" name="INIWAV">     1</i>
  <i type="int" name="NELMIN">    10</i>
  <i type="int" name="IBRION">     2</i>
  <i name="EDIFF">      0.00000100</i>
  <i name="EDIFFG">     -0.02000000</i>
  <i type="int" name="NSW">    10</i>
  <i name="ENCUT">    450.00000000</i>
  <i name="POTIM">      0.20000000</i>
  <i type="int" name="ISMEAR">     2</i>
  <i name="SIGMA">      0.20000000</i>
  <v type="int" name="KPOINT_BSE">    -1     0     0     0</v>
  <i type="string" name="GGA"> 91</i>
 </incar>
 <structure name="primitive_cell" >
  <crystal>
   <varray name="basis" >
    <v>       2.02500000       2.02500000       0.00000000 </v>
    <v>       2.02500000       0.00000000      -2.02500000 </v>
    <v>       0.00000000       2.02500000      -2.02500000 </v>
   </varray>
   <i name="volume">     16.60753125 </i>
   <varray name="rec_basis" >
    <v>       0.24691358       0.24691358       0.24691358 </v>
    <v>       0.24691358      -0.24691358      -0.24691358 </v>
    <v>      -0.24691358       0.24691358      -0.24691358 </v>
   </varray>
  </crystal>
  <varray name="positions" >
   <v>       0.00000000       0.00000000       0.00000000 </v>
  </varray>
 </structure>
 <varray name="primitive_index" >
  <v type="int" >        1 </v>
 </varray>
 <kpoints>
  <generation param="Monkhorst-Pack">
   <v type="int" name="divisions">      16       16       16 </v>
   <v name="usershift">      0.00000000       0.00000000       0.00000000 </v>
   <v name="genvec1">      0.06250000       0.00000000       0.00000000 </v>
   <v name="genvec2">      0.00000000       0.06250000       0.00000000 </v>
   <v name="genvec3">      0.00000000       0.00000000       0.06250000 </v>
   <v name="shift">      0.50000000       0.50000000       0.50000000 </v>
  </generation>
  <varray name="kpointlist" >
   <v>       0.03125000       0.03125000       0.03125000 </v>
   <v>       0.09375000       0.03125000       0.03125000 </v>
   <v>       0.15625000       0.03125000       0.03125000 </v>
   <v>       0.21875000       0.03125000       0.03125000 </v>
   <v>       0.28125000       0.03125000       0.03125000 </v>
   <v>       0.34375000       0.03125000       0.03125000 </v>
   <v>       0.40625000       0.03125000       0.03125000 </v>
   <v>       0.46875000       0.03125000       0.03125000 </v>
   <v>       0.09375000       0.09375000       0.03125000 </v>
   <v>       0.15625000       0.09375000       0.03125000 </v>
   <v>       0.21875000       0.09375000       0.03125000 </v>
   <v>       0.28125000       0.09375000       0.03125000 </v>
   <v>       0.34375000       0.09375000       0.03125000 </v>
   <v>       0.40625000       0.09375000       0.03125000 </v>
   <v>       0.46875000       0.09375000       0.03125000 </v>
   <v>       0.15625000       0.15625000       0.03125000 </v>
   <v>       0.21875000       0.15625000       0.03125000 </v>
   <v>       0.28125000       0.15625000       0.03125000 </v>
   <v>       0.34375000       0.15625000       0.03125000 </v>
   <v>       0.40625000       0.15625000       0.03125000 </v>
   <v>       0.46875000       0.15625000       0.03125000 </v>
   <v>       0.21875000       0.21875000       0.03125000 </v>
   <v>       0.28125000       0.21875000       0.03125000 </v>
   <v>       0.34375000       0.21875000       0.03125000 </v>
   <v>       0.40625000       0.21875000       0.03125000 </v>
   <v>       0.46875000       0.21875000       0.03125000 </v>
   <v>       0.28125000       0.28125000       0.03125000 </v>
   <v>       0.34375000       0.28125000       0.03125000 </v>
   <v>       0.40625000       0.28125000       0.03125000 </v>
   <v>       0.46875000       0.28125000       0.03125000 </v>
   <v>       0.34375000       0.34375000       0.03125000 </v>
   <v>       0.40625000       0.34375000       0.03125000 </v>
   <v>       0.46875000       0.34375000       0.03125000 </v>
   <v>       0.40625000       0.40625000       0.03125000 </v>
   <v>       0.46875000       0.40625000       0.03125000 </v>
   <v>       0.46875000       0.46875000       0.03125000 </v>
   <v>       0.09375000       0.09375000       0.09375000 </v>
   <v>       0.15625000       0.09375000       0.09375000 </v>
   <v>       0.21875000       0.09375000       0.09375000 </v>
   <v>       0.28125000       0.09375000       0.09375000 </v>
   <v>       0.34375000       0.09375000       0.09375000 </v>
   <v>       0.40625000       0.09375000       0.09375000 </v>
   <v>       0.46875000       0.09375000       0.09375000 </v>
   <v>       0.15625000       0.15625000       0.09375000 </v>
   <v>       0.21875000       0.15625000       0.09375000 </v>
   <v>       0.28125000       0.15625000       0.09375000 </v>
   <v>       0.34375000       0.15625000       0.09375000 </v>
   <v>       0.40625000       0.15625000       0.09375000 </v>
   <v>       0.46875000       0.15625000       0.09375000 </v>
   <v>       0.21875000       0.21875000       0.09375000 </v>
   <v>       0.28125000       0.21875000       0.09375000 </v>
   <v>       0.34375000       0.21875000       0.09375000 </v>
   <v>       0.40625000       0.21875000       0.09375000 </v>
   <v>       0.46875000       0.21875000       0.09375000 </v>
   <v>       0.28125000       0.28125000       0.09375000 </v>
   <v>       0.34375000       0.28125000       0.09375000 </v>
   <v>       0.40625000       0.28125000       0.09375000 </v>
   <v>       0.46875000       0.28125000       0.09375000 </v>
   <v>       0.34375000       0.34375000       0.09375000 </v>
   <v>       0.40625000       0.34375000       0.09375000 </v>
   <v>       0.46875000       0.34375000       0.09375000 </v>
   <v>       0.40625000       0.40625000       0.09375000 </v>
   <v>       0.46875000       0.40625000       0.09375000 </v>
   <v>       0.46875000       0.46875000       0.09375000 </v>
   <v>       0.15625000       0.15625000       0.15625000 </v>
   <v>       0.21875000       0.15625000       0.15625000 </v>
   <v>       0.28125000       0.15625000       0.15625000 </v>
   <v>       0.34375000       0.15625000       0.15625000 </v>
   <v>       0.40625000       0.15625000       0.15625000 </v>
   <v>       0.46875000       0.15625000       0.15625000 </v>
   <v>       0.21875000       0.21875000       0.15625000 </v>
   <v>       0.28125000       0.21875000       0.15625000 </v>
   <v>       0.34375000       0.21875000       0.15625000 </v>
   <v>       0.40625000       0.21875000       0.15625000 </v>
   <v>       0.46875000       0.21875000       0.15625000 </v>
   <v>       0.28125000       0.28125000       0.15625000 </v>
   <v>       0.34375000       0.28125000       0.15625000 </v>
   <v>       0.40625000       0.28125000       0.15625000 </v>
   <v>       0.46875000       0.28125000       0.15625000 </v>
   <v>       0.34375000       0.34375000       0.15625000 </v>
   <v>       0.40625000       0.34375000       0.15625000 </v>
   <v>       0.46875000       0.34375000       0.15625000 </v>
   <v>       0.40625000       0.40625000       0.15625000 </v>
   <v>       0.46875000       0.40625000       0.15625000 </v>
   <v>       0.46875000       0.46875000       0.15625000 </v>
   <v>       0.21875000       0.21875000       0.21875000 </v>
   <v>       0.28125000       0.21875000       0.21875000 </v>
   <v>       0.34375000       0.21875000       0.21875000 </v>
   <v>       0.40625000       0.21875000       0.21875000 </v>
   <v>       0.46875000       0.21875000       0.21875000 </v>
   <v>       0.28125000       0.28125000       0.21875000 </v>
   <v>       0.34375000       0.28125000       0.21875000 </v>
   <v>       0.40625000       0.28125000       0.21875000 </v>
   <v>       0.46875000       0.28125000       0.21875000 </v>
   <v>       0.34375000       0.34375000       0.21875000 </v>
   <v>       0.40625000       0.34375000       0.21875000 </v>
   <v>       0.46875000       0.34375000       0.21875000 </v>
   <v>       0.40625000       0.40625000       0.21875000 </v>
   <v>       0.46875000       0.40625000       0.21875000 </v>
   <v>       0.46875000       0.46875000       0.21875000 </v>
   <v>       0.28125000       0.28125000       0.28125000 </v>
   <v>       0.34375000       0.28125000       0.28125000 </v>
   <v>       0.40625000       0.28125000       0.28125000 </v>
   <v>       0.46875000       0.28125000       0.28125000 </v>
   <v>       0.34375000       0.34375000       0.28125000 </v>
   <v>       0.40625000       0.34375000       0.28125000 </v>
   <v>       0.46875000       0.34375000       0.28125000 </v>
   <v>       0.40625000       0.40625000       0.28125000 </v>
   <v>       0.46875000       0.40625000       0.28125000 </v>
   <v>       0.46875000       0.46875000       0.28125000 </v>
   <v>       0.34375000       0.34375000       0.34375000 </v>
   <v>       0.40625000       0.34375000       0.34375000 </v>
   <v>       0.46875000       0.34375000       0.34375000 </v>
   <v>       0.40625000       0.40625000       0.34375000 </v>
   <v>       0.46875000       0.40625000       0.34375000 </v>
   <v>       0.46875000       0.46875000       0.34375000 </v>
   <v>       0.40625000       0.40625000       0.40625000 </v>
   <v>       0.46875000       0.40625000       0.40625000 </v>
   <v>       0.46875000       0.46875000       0.40625000 </v>
   <v>       0.46875000       0.46875000       0.46875000 </v>
  </varray>
  <varray name="weights" >
   <v>       0.00195312 </v>
   <v>       0.00585938 </v>
   <v>       0.00585938 </v>
   <v>       0.00585938 </v>
   <v>       0.00585938 </v>
   <v>       0.00585938 </v>
   <v>       0.00585938 </v>
   <v>       0.00585938 </v>
   <v>       0.00585938 </v>
   <v>       0.01171875 </v>
   <v>       0.01171875 </v>
   <v>       0.01171875 </v>
   <v>       0.01171875 </v>
   <v>       0.01171875 </v>
   <v>       0.01171875 </v>
   <v>       0.00585938 </v>
   <v>       0.01171875 </v>
   <v>       0.01171875 </v>
   <v>       0.01171875 </v>
   <v>       0.01171875 </v>
   <v>       0.01171875 </v>
   <v>       0.00585938 </v>
   <v>       0.01171875 </v>
   <v>       0.01171875 </v>
   <v>       0.01171875 </v>
   <v>       0.01171875 </v>
   <v>       0.00585938 </v>
   <v>       0.01171875 </v>
   <v>       0.01171875 </v>
   <v>       0.01171875 </v>
   <v>       0.00585938 </v>
   <v>       0.01171875 </v>
   <v>       0.01171875 </v>
   <v>       0.00585938 </v>
   <v>       0.01171875 </v>
   <v>       0.00585938 </v>
   <v>       0.00195312 </v>
   <v>       0.00585938 </v>
   <v>       0.00585938 </v>
   <v>       0.00585938 </v>
   <v>       0.00585938 </v>
   <v>       0.00585938 </v>
   <v>       0.00585938 </v>
   <v>       0.00585938 </v>
   <v>       0.01171875 </v>
   <v>       0.01171875 </v>
   <v>       0.01171875 </v>
   <v>       0.01171875 </v>
   <v>       0.01171875 </v>
   <v>       0.00585938 </v>
   <v>       0.01171875 </v>
   <v>       0.01171875 </v>
   <v>       0.01171875 </v>
   <v>       0.01171875 </v>
   <v>       0.00585938 </v>
   <v>       0.01171875 </v>
   <v>       0.01171875 </v>
   <v>       0.01171875 </v>
   <v>       0.00585938 </v>
   <v>       0.01171875 </v>
   <v>       0.01171875 </v>
   <v>       0.00585938 </v>
   <v>       0.01171875 </v>
   <v>       0.00585938 </v>
   <v>       0.00195312 </v>
   <v>       0.00585938 </v>
   <v>       0.00585938 </v>
   <v>       0.00585938 </v>
   <v>       0.00585938 </v>
   <v>       0.00585938 </v>
   <v>       0.00585938 </v>
   <v>       0.01171875 </v>
   <v>       0.01171875 </v>
   <v>       0.01171875 </v>
   <v>       0.01171875 </v>
   <v>       0.00585938 </v>
   <v>       0.01171875 </v>
   <v>       0.01171875 </v>
   <v>       0.01171875 </v>
   <v>       0.00585938 </v>
   <v>       0.01171875 </v>
   <v>       0.01171875 </v>
   <v>       0.00585938 </v>
   <v>       0.01171875 </v>
   <v>       0.00585938 </v>
   <v>       0.00195312 </v>
   <v>       0.00585938 </v>
   <v>       0.00585938 </v>
   <v>       0.00585938 </v>
   <v>       0.00585938 </v>
   <v>       0.00585938 </v>
   <v>       0.01171875 </v>
   <v>       0.01171875 </v>
   <v>       0.01171875 </v>
   <v>       0.00585938 </v>
   <v>       0.01171875 </v>
   <v>       0.01171875 </v>
   <v>       0.00585938 </v>
   <v>       0.01171875 </v>
   <v>       0.00585938 </v>
   <v>       0.00195312 </v>
   <v>       0.00585938 </v>
   <v>       0.00585938 </v>
   <v>       0.00585938 </v>
   <v>       0.00585938 </v>
   <v>       0.01171875 </v>
   <v>       0.01171875 </v>
   <v>       0.00585938 </v>
   <v>       0.01171875 </v>
   <v>       0.00585938 </v>
   <v>       0.00195312 </v>
   <v>       0.00585938 </v>
   <v>       0.00585938 </v>
   <v>       0.00585938 </v>
   <v>       0.01171875 </v>
   <v>       0.00585938 </v>
   <v>       0.00195312 </v>
   <v>       0.00585938 </v>
   <v>       0.00585938 </v>
   <v>       0.00195312 </v>
  </varray>
 </kpoints>
 <parameters>
  <separator name="general" >
   <i type="string" name="SYSTEM">Pt bulk calculation</i>
   <i type="logical" name="LCOMPAT"> F  </i>
  </separator>
  <separator name="electronic" >
   <i type="string" name="PREC">normal</i>
   <i name="ENMAX">    450.00000000</i>
   <i name="ENAUG">    358.96600000</i>
   <i name="EDIFF">      0.00000100</i>
   <i type="int" name="IALGO">    38</i>
   <i type="int" name="IWAVPR">    11</i>
   <i type="int" name="NBANDS">    24</i>
   <i name="NELECT">     40.00000000</i>
   <i type="int" name="TURBO">     0</i>
   <i type="int" name="IRESTART">     0</i>
   <i type="int" name="NREBOOT">     0</i>
   <i type="int" name="NMIN">     0</i>
   <i name="EREF">      0.00000000</i>
   <separator name="electronic smearing" >
    <i type="int" name="ISMEAR">     2</i>
    <i name="SIGMA">      0.20000000</i>
    <i name="KSPACING">      0.50000000</i>
    <i type="logical" name="KGAMMA"> T  </i>
   </separator>
   <separator name="electronic projectors" >
    <i type="logical" name="LREAL"> F  </i>
    <v name="ROPT">      0.00000000</v>
    <i type="int" name="LMAXPAW">  -100</i>
    <i type="int" name="LMAXMIX">     2</i>
    <i type="logical" name="NLSPLINE"> F  </i>
   </separator>
   <separator name="electronic startup" >
    <i type="int" name="ISTART">     0</i>
    <i type="int" name="ICHARG">     2</i>
    <i type="int" name="INIWAV">     1</i>
   </separator>
   <separator name="electronic spin" >
    <i type="int" name="ISPIN">     1</i>
    <i type="logical" name="LNONCOLLINEAR"> F  </i>
    <v name="MAGMOM">      1.00000000      1.00000000      1.00000000      1.00000000</v>
    <i name="NUPDOWN">     -1.00000000</i>
    <i type="logical" name="LSORBIT"> F  </i>
    <v name="SAXIS">      0.00000000      0.00000000      1.00000000</v>
    <i type="logical" name="LSPIRAL"> F  </i>
    <v name="QSPIRAL">      0.00000000      0.00000000      0.00000000</v>
    <i type="logical" name="LZEROZ"> F  </i>
   </separator>
   <separator name="electronic exchange-correlation" >
    <i type="logical" name="LASPH"> F  </i>
    <i type="logical" name="LMETAGGA"> F  </i>
   </separator>
   <separator name="electronic convergence" >
    <i type="int" name="NELM">    60</i>
    <i type="int" name="NELMDL">    -5</i>
    <i type="int" name="NELMIN">    10</i>
    <i name="ENINI">    450.00000000</i>
    <separator name="electronic convergence detail" >
     <i type="logical" name="LDIAG"> T  </i>
     <i type="logical" name="LSUBROT"> F  </i>
     <i name="WEIMIN">      0.00100000</i>
     <i name="EBREAK">      0.00000001</i>
     <i name="DEPER">      0.30000000</i>
     <i type="int" name="NRMM">     4</i>
     <i name="TIME">      0.40000000</i>
    </separator>
   </separator>
   <separator name="electronic mixer" >
    <i name="AMIX">      0.40000000</i>
    <i name="BMIX">      1.00000000</i>
    <i name="AMIN">      0.10000000</i>
    <i name="AMIX_MAG">      1.60000000</i>
    <i name="BMIX_MAG">      1.00000000</i>
    <separator name="electronic mixer details" >
     <i type="int" name="IMIX">     4</i>
     <i type="logical" name="MIXFIRST"> F  </i>
     <i type="int" name="MAXMIX">   -45</i>
     <i name="WC">    100.00000000</i>
     <i type="int" name="INIMIX">     1</i>
     <i type="int" name="MIXPRE">     1</i>
     <i type="int" name="MREMOVE">     5</i>
    </separator>
   </separator>
   <separator name="electronic dipolcorrection" >
    <i type="logical" name="LDIPOL"> F  </i>
    <i type="logical" name="LMONO"> F  </i>
    <i type="int" name="IDIPOL">     0</i>
    <i name="EPSILON">      1.00000000</i>
    <v name="DIPOL">   -100.00000000   -100.00000000   -100.00000000</v>
    <i name="EFIELD">      0.00000000</i>
   </separator>
  </separator>
  <separator name="grids" >
   <i type="int" name="NGX">    24</i>
   <i type="int" name="NGY">    24</i>
   <i type="int" name="NGZ">    24</i>
   <i type="int" name="NGXF">    48</i>
   <i type="int" name="NGYF">    48</i>
   <i type="int" name="NGZF">    48</i>
   <i type="logical" name="ADDGRID"> F  </i>
  </separator>
  <separator name="ionic" >
   <i type="int" name="NSW">    10</i>
   <i type="int" name="IBRION">     2</i>
   <i type="int" name="MDALGO">     0</i>
   <i type="int" name="ISIF">     2</i>
   <i name="PSTRESS">      0.00000000</i>
   <i name="EDIFFG">     -0.02000000</i>
   <i type="int" name="NFREE">     1</i>
   <i name="POTIM">      0.20000000</i>
   <i name="SMASS">     -3.00000000</i>
   <i name="SCALEE">      1.00000000</i>
  </separator>
  <separator name="ionic md" >
   <i name="TEBEG">      0.00010000</i>
   <i name="TEEND">      0.00010000</i>
   <i type="int" name="NBLOCK">     1</i>
   <i type="int" name="KBLOCK">    10</i>
   <i type="int" name="NPACO">   256</i>
   <i name="APACO">     16.00000000</i>
  </separator>
  <separator name="symmetry" >
   <i type="int" name="ISYM">     2</i>
   <i name="SYMPREC">      0.00001000</i>
  </separator>
  <separator name="dos" >
   <i type="int" name="LORBIT">     0</i>
   <v name="RWIGS">     -1.00000000</v>
   <i type="int" name="NEDOS">   301</i>
   <i name="EMIN">     10.00000000</i>
   <i name="EMAX">    -10.00000000</i>
   <i name="EFERMI">      0.00000000</i>
  </separator>
  <separator name="writing" >
   <i type="int" name="NWRITE">     2</i>
   <i type="logical" name="LWAVE"> T  </i>
   <i type="logical" name="LDOWNSAMPLE"> F  </i>
   <i type="logical" name="LCHARG"> T  </i>
   <i type="logical" name="LPARD"> F  </i>
   <i type="logical" name="LVTOT"> F  </i>
   <i type="logical" name="LVHAR"> F  </i>
   <i type="logical" name="LELF"> F  </i>
   <i type="logical" name="LOPTICS"> F  </i>
   <v name="STM">      0.00000000      0.00000000      0.00000000      0.00000000      0.00000000      0.00000000      0.00000000</v>
  </separator>
  <separator name="performance" >
   <i type="int" name="NPAR">     2</i>
   <i type="int" name="NSIM">     4</i>
   <i type="int" name="NBLK">    -1</i>
   <i type="logical" name="LPLANE"> T  </i>
   <i type="logical" name="LSCALAPACK"> F  </i>
   <i type="logical" name="LSCAAWARE"> F  </i>
   <i type="logical" name="LSCALU"> F  </i>
   <i type="logical" name="LASYNC"> F  </i>
   <i type="logical" name="LORBITALREAL"> F  </i>
  </separator>
  <separator name="miscellaneous" >
   <i type="int" name="IDIOT">     3</i>
   <i type="int" name="ISPECIAL">     0</i>
   <i type="logical" name="LMUSIC"> F  </i>
   <v name="POMASS">    195.08000000</v>
   <v name="DARWINR">      0.00000000</v>
   <v name="DARWINV">      1.00000000</v>
   <i type="logical" name="LCORR"> T  </i>
  </separator>
  <i type="logical" name="GGA_COMPAT"> T  </i>
  <i type="logical" name="LBERRY"> F  </i>
  <i type="int" name="ICORELEVEL">     0</i>
  <i type="logical" name="LDAU"> F  </i>
  <i type="int" name="I_CONSTRAINED_M">     0</i>
  <separator name="electronic exchange-correlation" >
   <i type="string" name="GGA">91</i>
   <i type="int" name="VOSKOWN">     0</i>
   <i type="logical" name="LHFCALC"> F  </i>
   <i type="string" name="PRECFOCK"></i>
   <i type="logical" name="LSYMGRAD"> F  </i>
   <i type="logical" name="LHFONE"> F  </i>
   <i type="logical" name="LRHFCALC"> F  </i>
   <i type="logical" name="LTHOMAS"> F  </i>
   <i type="logical" name="LMODELHF"> F  </i>
   <i name="ENCUT4O">     -1.00000000</i>
   <i type="int" name="EXXOEP">     0</i>
   <i type="int" name="FOURORBIT">     0</i>
   <i name="AEXX">      0.00000000</i>
   <i name="HFALPHA">      0.00000000</i>
   <i name="MCALPHA">      0.00000000</i>
   <i name="ALDAX">      1.00000000</i>
   <i name="AGGAX">      1.00000000</i>
   <i name="ALDAC">      1.00000000</i>
   <i name="AGGAC">      1.00000000</i>
   <i type="int" name="NKREDX">     1</i>
   <i type="int" name="NKREDY">     1</i>
   <i type="int" name="NKREDZ">     1</i>
   <i type="logical" name="SHIFTRED"> F  </i>
   <i type="logical" name="ODDONLY"> F  </i>
   <i type="logical" name="EVENONLY"> F  </i>
   <i type="int" name="LMAXFOCK">     0</i>
   <i type="int" name="NMAXFOCKAE">     0</i>
   <i type="logical" name="LFOCKAEDFT"> F  </i>
   <i name="HFSCREEN">      0.00000000</i>
   <i name="HFSCREENC">      0.00000000</i>
   <i type="int" name="NBANDSGWLOW">     0</i>
  </separator>
  <separator name="vdW DFT" >
   <i type="logical" name="LUSE_VDW"> F  </i>
   <i name="Zab_VDW">     -0.84910000</i>
   <i name="PARAM1">      0.12340000</i>
   <i name="PARAM2">      1.00000000</i>
   <i name="PARAM3">      0.00000000</i>
  </separator>
  <separator name="model GW" >
   <i type="int" name="MODEL_GW">     0</i>
   <i name="MODEL_EPS0">      9.96451875</i>
   <i name="MODEL_ALPHA">      1.00000000</i>
  </separator>
  <separator name="linear response parameters" >
   <i type="logical" name="LEPSILON"> F  </i>
   <i type="logical" name="LRPA"> F  </i>
   <i type="logical" name="LNABLA"> F  </i>
   <i type="logical" name="LVEL"> F  </i>
   <i type="int" name="KINTER">     0</i>
   <i name="CSHIFT">      0.10000000</i>
   <i name="OMEGAMAX">     -1.00000000</i>
   <i name="DEG_THRESHOLD">      0.00200000</i>
   <i name="RTIME">     -0.10000000</i>
   <i name="WPLASMAI">      0.00000000</i>
   <v name="DFIELD">      0.00000000      0.00000000      0.00000000</v>
   <v name="WPLASMA">      0.00000000      0.00000000      0.00000000      0.00000000      0.00000000      0.00000000      0.00000000      0.00000000      0.00000000</v>
  </separator>
  <separator name="orbital magnetization" >
   <i type="logical" name="NUCIND"> F  </i>
   <v name="MAGPOS">      0.00000000      0.00000000      0.00000000</v>
   <i type="logical" name="LNICSALL"> T  </i>
   <i type="logical" name="ORBITALMAG"> F  </i>
   <i type="logical" name="LMAGBLOCH"> F  </i>
   <i type="logical" name="LCHIMAG"> F  </i>
   <i type="logical" name="LGAUGE"> T  </i>
   <i type="int" name="MAGATOM">     0</i>
   <v name="MAGDIPOL">      0.00000000      0.00000000      0.00000000</v>
   <v name="AVECCONST">      0.00000000      0.00000000      0.00000000</v>
  </separator>
  <separator name="response functions" >
   <i type="logical" name="LADDER"> F  </i>
   <i type="logical" name="LRPAFORCE"> F  </i>
   <i type="logical" name="LFXC"> F  </i>
   <i type="logical" name="LHARTREE"> T  </i>
   <i type="int" name="IBSE">     0</i>
   <v type="int" name="KPOINT">    -1     0     0     0</v>
   <i type="logical" name="LTCTE"> F  </i>
   <i type="logical" name="LTETE"> F  </i>
   <i type="logical" name="LTRIPLET"> F  </i>
   <i type="logical" name="LFXCEPS"> F  </i>
   <i type="logical" name="LFXHEG"> F  </i>
   <i type="int" name="NATURALO">     2</i>
   <i type="logical" name="L2ORDER"> F  </i>
   <i type="logical" name="LMP2LT"> F  </i>
   <i type="logical" name="LUSEW"> F  </i>
   <i name="ENCUTGW">     -2.00000000</i>
   <i name="ENCUTGWSOFT">     -2.00000000</i>
   <i name="ENCUTLF">     -1.00000000</i>
   <i type="int" name="LMAXMP2">    -1</i>
   <i name="SCISSOR">      0.00000000</i>
   <i type="int" name="NOMEGA">     0</i>
   <i type="int" name="NOMEGAR">     0</i>
   <i type="int" name="NBANDSGW">    -1</i>
   <i type="int" name="NBANDSO">    -1</i>
   <i type="int" name="NBANDSV">    -1</i>
   <i type="int" name="NELM">     1</i>
   <i type="int" name="NELMHF">     1</i>
   <i type="int" name="DIM">     3</i>
   <i type="int" name="ANTIRES">     0</i>
   <i name="OMEGAMAX">    -30.00000000</i>
   <i name="OMEGAMIN">    -30.00000000</i>
   <i name="OMEGATL">   -200.00000000</i>
   <i type="int" name="OMEGAGRID">   140</i>
   <i name="CSHIFT">     -0.10000000</i>
   <i type="logical" name="SELFENERGY"> F  </i>
   <i type="logical" name="LSPECTRAL"> F  </i>
   <i type="logical" name="LSPECTRALGW"> F  </i>
   <i type="logical" name="LSINGLES"> F  </i>
   <i type="logical" name="LFERMIGW"> F  </i>
   <i type="logical" name="ODDONLYGW"> F  </i>
   <i type="logical" name="EVENONLYGW"> F  </i>
   <i type="int" name="NKREDLFX">     1</i>
   <i type="int" name="NKREDLFY">     1</i>
   <i type="int" name="NKREDLFZ">     1</i>
   <i type="int" name="MAXMEM">  2800</i>
   <i type="int" name="TELESCOPE">     0</i>
   <i type="int" name="TAUPAR">     1</i>
   <i type="int" name="OMEGAPAR">    -1</i>
   <i name="LAMBDA">      1.00000000</i>
  </separator>
  <separator name="External order field" >
   <i name="OFIELD_KAPPA">      0.00000000</i>
   <v name="OFIELD_K">      0.00000000      0.00000000      0.00000000</v>
   <i name="OFIELD_Q6_NEAR">      0.00000000</i>
   <i name="OFIELD_Q6_FAR">      0.00000000</i>
   <i name="OFIELD_A">      0.00000000</i>
  </separator>
 </parameters>
 <atominfo>
  <atoms>       4 </atoms>
  <types>       1 </types>
  <array name="atoms" >
   <dimension dim="1">ion</dimension>
   <field type="string">element</field>
   <field type="int">atomtype</field>
   <set>
    <rc><c>Pt</c><c>   1</c></rc>
    <rc><c>Pt</c><c>   1</c></rc>
    <rc><c>Pt</c><c>   1</c></rc>
    <rc><c>Pt</c><c>   1</c></rc>
   </set>
  </array>
  <array name="atomtypes" >
   <dimension dim="1">type</dimension>
   <field type="int">atomspertype</field>
   <field type="string">element</field>
   <field>mass</field>
   <field>valence</field>
   <field type="string">pseudopotential</field>
   <set>
    <rc><c>   4</c><c>Pt</c><c>    195.08000000</c><c>     10.00000000</c><c> PAW_PBE Pt 05Jan2001                   </c></rc>
   </set>
  </array>
 </atominfo>
 <structure name="initialpos" >
  <crystal>
   <varray name="basis" >
    <v>       4.05000000       0.00000000       0.00000000 </v>
    <v>       0.00000000       4.05000000       0.00000000 </v>
    <v>       0.00000000       0.00000000       4.05000000 </v>
   </varray>
   <i name="volume">     66.43012500 </i>
   <varray name="rec_basis" >
    <v>       0.24691358       0.00000000       0.00000000 </v>
    <v>       0.00000000       0.24691358       0.00000000 </v>
    <v>       0.00000000       0.00000000       0.24691358 </v>
   </varray>
  </crystal>
  <varray name="positions" >
   <v>       0.00000000       0.00000000       0.00000000 </v>
   <v>       0.00000000       0.50000000       0.50000000 </v>
   <v>       0.50000000       0.00000000       0.50000000 </v>
   <v>       0.50000000       0.50000000       0.00000000 </v>
  </varray>
 </structure>
 <calculation>
  <scstep>
   <time name="dav">    1.15    1.15</time>
   <time name="total">    1.17    1.23</time>
   <energy>
    <i name="alphaZ">    350.43204871 </i>
    <i name="ewald">  -3260.29821023 </i>
    <i name="hartreedc">   -320.95807819 </i>
    <i name="XCdc">     12.75326604 </i>
    <i name="pawpsdc">   2293.79710215 </i>
    <i name="pawaedc">  -2181.03440391 </i>
    <i name="eentropy">      0.00017130 </i>
    <i name="bandstr">    619.72571658 </i>
    <i name="atom">   2915.53815049 </i>
    <i name="e_fr_energy">    429.95576295 </i>
    <i name="e_wo_entrp">    429.95559165 </i>
    <i name="e_0_energy">    429.95572012 </i>
   </energy>
  </scstep>
  <scstep>
   <time name="dav">    1.11    1.12</time>
   <time name="total">    1.12    1.13</time>
   <energy>
    <i name="e_fr_energy">      4.61017049 </i>
    <i name="e_wo_entrp">      4.61298063 </i>
    <i name="e_0_energy">      4.61087303 </i>
   </energy>
  </scstep>
  <scstep>
   <time name="dav">    1.37    1.37</time>
   <time name="total">    1.38    1.38</time>
   <energy>
    <i name="e_fr_energy">    -25.06656992 </i>
    <i name="e_wo_entrp">    -25.06214553 </i>
    <i name="e_0_energy">    -25.06546383 </i>
   </energy>
  </scstep>
  <scstep>
   <time name="dav">    1.12    1.12</time>
   <time name="total">    1.13    1.13</time>
   <energy>
    <i name="e_fr_energy">    -26.01177079 </i>
    <i name="e_wo_entrp">    -26.00864458 </i>
    <i name="e_0_energy">    -26.01098924 </i>
   </energy>
  </scstep>
  <scstep>
   <time name="dav">    1.30    1.30</time>
   <time name="total">    1.38    1.38</time>
   <energy>
    <i name="e_fr_energy">    -26.04139495 </i>
    <i name="e_wo_entrp">    -26.03838330 </i>
    <i name="e_0_energy">    -26.04064204 </i>
   </energy>
  </scstep>
  <scstep>
   <time name="dav">    1.27    1.27</time>
   <time name="total">    1.36    1.36</time>
   <energy>
    <i name="e_fr_energy">    -24.44376781 </i>
    <i name="e_wo_entrp">    -24.43753246 </i>
    <i name="e_0_energy">    -24.44220897 </i>
   </energy>
  </scstep>
  <scstep>
   <time name="dav">    1.51    1.51</time>
   <time name="total">    1.60    1.60</time>
   <energy>
    <i name="e_fr_energy">    -24.33845627 </i>
    <i name="e_wo_entrp">    -24.33200928 </i>
    <i name="e_0_energy">    -24.33684452 </i>
   </energy>
  </scstep>
  <scstep>
   <time name="dav">    1.08    1.08</time>
   <time name="total">    1.17    1.17</time>
   <energy>
    <i name="e_fr_energy">    -24.32619657 </i>
    <i name="e_wo_entrp">    -24.31979814 </i>
    <i name="e_0_energy">    -24.32459696 </i>
   </energy>
  </scstep>
  <scstep>
   <time name="dav">    1.34    1.34</time>
   <time name="total">    1.42    1.42</time>
   <energy>
    <i name="e_fr_energy">    -24.32589725 </i>
    <i name="e_wo_entrp">    -24.31945978 </i>
    <i name="e_0_energy">    -24.32428789 </i>
   </energy>
  </scstep>
  <scstep>
   <time name="dav">    1.16    1.16</time>
   <time name="total">    1.25    1.25</time>
   <energy>
    <i name="e_fr_energy">    -24.32591344 </i>
    <i name="e_wo_entrp">    -24.31948351 </i>
    <i name="e_0_energy">    -24.32430596 </i>
   </energy>
  </scstep>
  <scstep>
   <time name="dav">    0.87    0.87</time>
   <time name="total">    0.96    0.96</time>
   <energy>
    <i name="e_fr_energy">    -24.32591556 </i>
    <i name="e_wo_entrp">    -24.31948631 </i>
    <i name="e_0_energy">    -24.32430825 </i>
   </energy>
  </scstep>
  <scstep>
   <time name="dav">    0.71    0.71</time>
   <time name="total">    0.73    0.73</time>
   <energy>
    <i name="alphaZ">    350.43204871 </i>
    <i name="ewald">  -3260.29821023 </i>
    <i name="hartreedc">   -279.67761250 </i>
    <i name="XCdc">     11.10462327 </i>
    <i name="pawpsdc">   2341.74153361 </i>
    <i name="pawaedc">  -2237.72979757 </i>
    <i name="eentropy">     -0.00642905 </i>
    <i name="bandstr">    134.56977800 </i>
    <i name="atom">   2915.53815049 </i>
    <i name="e_fr_energy">    -24.32591527 </i>
    <i name="e_wo_entrp">    -24.31948622 </i>
    <i name="e_0_energy">    -24.32430801 </i>
   </energy>
  </scstep>
  <structure>
   <crystal>
    <varray name="basis" >
     <v>       4.05000000       0.00000000       0.00000000 </v>
     <v>       0.00000000       4.05000000       0.00000000 </v>
     <v>       0.00000000       0.00000000       4.05000000 </v>
    </varray>
    <i name="volume">     66.43012500 </i>
    <varray name="rec_basis" >
     <v>       0.24691358       0.00000000       0.00000000 </v>
     <v>       0.00000000       0.24691358       0.00000000 </v>
     <v>       0.00000000       0.00000000       0.24691358 </v>
    </varray>
   </crystal>
   <varray name="positions" >
    <v>       0.00000000       0.00000000       0.00000000 </v>
    <v>       0.00000000       0.50000000       0.50000000 </v>
    <v>       0.50000000       0.00000000       0.50000000 </v>
    <v>       0.50000000       0.50000000       0.00000000 </v>
   </varray>
  </structure>
  <varray name="forces" >
   <v>      -0.00000000       0.00000000      -0.00000000 </v>
   <v>      -0.00000000      -0.00000000       0.00000000 </v>
   <v>       0.00000000      -0.00000000       0.00000000 </v>
   <v>       0.00000000       0.00000000      -0.00000000 </v>
  </varray>
  <varray name="stress" >
   <v>     -98.52694080       0.00000000      -0.00000000 </v>
   <v>       0.00000000     -98.52694080       0.00000000 </v>
   <v>       0.00000000       0.00000000     -98.52694080 </v>
  </varray>
  <energy>
   <i name="e_fr_energy">    -24.32591527 </i>
   <i name="e_wo_entrp">    -24.32430801 </i>
   <i name="e_0_energy">     -0.00642905 </i>
  </energy>
  <time name="totalsc">   15.99   17.00</time>
  <eigenvalues>
   <array>
    <dimension dim="1">band</dimension>
    <dimension dim="2">kpoint</dimension>
    <dimension dim="3">spin</dimension>
    <field>eigene</field>
    <field>occ</field>
    <set>
     <set comment="spin 1">
      <set comment="kpoint 1">
       <r>   -2.6355    1.0000 </r>
       <r>    0.4149    1.0000 </r>
       <r>    0.4149    1.0000 </r>
       <r>    0.4149    1.0000 </r>
       <r>    0.8041    1.0000 </r>
       <r>    0.8041    1.0000 </r>
       <r>    0.8041    1.0000 </r>
       <r>    3.2101    1.0000 </r>
       <r>    3.2390    1.0000 </r>
       <r>    3.2390    1.0000 </r>
       <r>    5.0688    1.0000 </r>
       <r>    5.0688    1.0000 </r>
       <r>    6.4442    0.6469 </r>
       <r>    6.4442    0.6469 </r>
       <r>    6.4442    0.6469 </r>
       <r>    6.7080   -0.0398 </r>
       <r>    6.7080   -0.0398 </r>
       <r>    6.7080   -0.0398 </r>
       <r>    6.8598    0.0047 </r>
       <r>    6.8598    0.0047 </r>
       <r>    6.8598    0.0047 </r>
       <r>    8.6156    0.0000 </r>
       <r>    8.6156    0.0000 </r>
       <r>    8.6156    0.0000 </r>
      </set>
      <set comment="kpoint 2">
       <r>   -2.5397    1.0000 </r>
       <r>    0.4480    1.0000 </r>
       <r>    0.4831    1.0000 </r>
       <r>    0.4831    1.0000 </r>
       <r>    0.8422    1.0000 </r>
       <r>    0.8620    1.0000 </r>
       <r>    0.8620    1.0000 </r>
       <r>    3.1565    1.0000 </r>
       <r>    3.2821    1.0000 </r>
       <r>    3.2856    1.0000 </r>
       <r>    5.0055    1.0000 </r>
       <r>    5.0939    1.0000 </r>
       <r>    6.2275    1.0354 </r>
       <r>    6.2275    1.0354 </r>
       <r>    6.3616    0.9669 </r>
       <r>    6.3616    0.9669 </r>
       <r>    6.4031    0.8345 </r>
       <r>    6.5648    0.0840 </r>
       <r>    6.7592   -0.0161 </r>
       <r>    6.8538    0.0045 </r>
       <r>    6.8538    0.0045 </r>
       <r>    8.1020    0.0000 </r>
       <r>    9.1456    0.0000 </r>
       <r>    9.1456    0.0000 </r>
      </set>
      <set comment="kpoint 3">
       <r>   -2.3503    1.0000 </r>
       <r>    0.5068    1.0000 </r>
       <r>    0.6155    1.0000 </r>
       <r>    0.6155    1.0000 </r>
       <r>    0.9176    1.0000 </r>
       <r>    0.9775    1.0000 </r>
       <r>    0.9775    1.0000 </r>
       <r>    3.0456    1.0000 </r>
       <r>    3.3755    1.0000 </r>
       <r>    3.3783    1.0000 </r>
       <r>    4.8839    1.0000 </r>
       <r>    5.1433    1.0000 </r>
       <r>    5.6193    1.0000 </r>
       <r>    5.6193    1.0000 </r>
       <r>    6.1757    1.0121 </r>
       <r>    6.1757    1.0121 </r>
       <r>    6.2699    1.0507 </r>
       <r>    6.3091    1.0434 </r>
       <r>    6.5856    0.0277 </r>
       <r>    6.8528    0.0044 </r>
       <r>    6.8528    0.0044 </r>
       <r>    7.3587    0.0000 </r>
       <r>    9.8652    0.0000 </r>
       <r>    9.8652    0.0000 </r>
      </set>
      <set comment="kpoint 4">
       <r>   -2.0716    1.0000 </r>
       <r>    0.5742    1.0000 </r>
       <r>    0.8039    1.0000 </r>
       <r>    0.8039    1.0000 </r>
       <r>    1.0288    1.0000 </r>
       <r>    1.1500    1.0000 </r>
       <r>    1.1500    1.0000 </r>
       <r>    2.8879    1.0000 </r>
       <r>    3.5144    1.0000 </r>
       <r>    3.5164    1.0000 </r>
       <r>    4.7145    1.0000 </r>
       <r>    4.9920    1.0000 </r>
       <r>    4.9920    1.0000 </r>
       <r>    5.2158    1.0000 </r>
       <r>    5.7893    1.0000 </r>
       <r>    5.9186    0.9992 </r>
       <r>    5.9186    0.9992 </r>
       <r>    6.1244    0.9987 </r>
       <r>    6.4034    0.8334 </r>
       <r>    6.6576   -0.0512 </r>
       <r>    6.8526    0.0044 </r>
       <r>    6.8526    0.0044 </r>
       <r>   10.6443    0.0000 </r>
       <r>   10.6443    0.0000 </r>
      </set>
      <set comment="kpoint 5">
       <r>   -1.7113    1.0000 </r>
       <r>    0.6189    1.0000 </r>
       <r>    1.0339    1.0000 </r>
       <r>    1.0339    1.0000 </r>
       <r>    1.1733    1.0000 </r>
       <r>    1.3777    1.0000 </r>
       <r>    1.3777    1.0000 </r>
       <r>    2.6937    1.0000 </r>
       <r>    3.6944    1.0000 </r>
       <r>    3.6983    1.0000 </r>
       <r>    4.3853    1.0000 </r>
       <r>    4.3853    1.0000 </r>
       <r>    4.5152    1.0000 </r>
       <r>    5.1532    1.0000 </r>
       <r>    5.3091    1.0000 </r>
       <r>    5.6098    1.0000 </r>
       <r>    5.6098    1.0000 </r>
       <r>    5.8379    0.9999 </r>
       <r>    6.1193    0.9979 </r>
       <r>    6.2536    1.0464 </r>
       <r>    6.8528    0.0044 </r>
       <r>    6.8528    0.0044 </r>
       <r>   11.4346    0.0000 </r>
       <r>   11.4346    0.0000 </r>
      </set>
      <set comment="kpoint 6">
       <r>   -1.2826    1.0000 </r>
       <r>    0.5912    1.0000 </r>
       <r>    1.2816    1.0000 </r>
       <r>    1.2816    1.0000 </r>
       <r>    1.3478    1.0000 </r>
       <r>    1.6574    1.0000 </r>
       <r>    1.6574    1.0000 </r>
       <r>    2.4739    1.0000 </r>
       <r>    3.8133    1.0000 </r>
       <r>    3.8133    1.0000 </r>
       <r>    3.8979    1.0000 </r>
       <r>    3.9220    1.0000 </r>
       <r>    4.3238    1.0000 </r>
       <r>    4.5425    1.0000 </r>
       <r>    5.2869    1.0000 </r>
       <r>    5.2869    1.0000 </r>
       <r>    5.4204    1.0000 </r>
       <r>    5.5011    1.0000 </r>
       <r>    5.6770    1.0000 </r>
       <r>    6.1133    0.9972 </r>
       <r>    6.8531    0.0044 </r>
       <r>    6.8531    0.0044 </r>
       <r>   12.1819    0.0000 </r>
       <r>   12.1819    0.0000 </r>
      </set>
      <set comment="kpoint 7">
       <r>   -0.8072    1.0000 </r>
       <r>    0.4321    1.0000 </r>
       <r>    1.5059    1.0000 </r>
       <r>    1.5059    1.0000 </r>
       <r>    1.5478    1.0000 </r>
       <r>    1.9869    1.0000 </r>
       <r>    1.9869    1.0000 </r>
       <r>    2.2395    1.0000 </r>
       <r>    3.2835    1.0000 </r>
       <r>    3.2835    1.0000 </r>
       <r>    3.9849    1.0000 </r>
       <r>    4.1080    1.0000 </r>
       <r>    4.1845    1.0000 </r>
       <r>    4.3094    1.0000 </r>
       <r>    5.0054    1.0000 </r>
       <r>    5.0054    1.0000 </r>
       <r>    5.1505    1.0000 </r>
       <r>    5.2752    1.0000 </r>
       <r>    5.5465    1.0000 </r>
       <r>    5.9707    0.9980 </r>
       <r>    6.8533    0.0044 </r>
       <r>    6.8533    0.0044 </r>
       <r>   12.7029    0.0000 </r>
       <r>   12.7029    0.0000 </r>
      </set>
      <set comment="kpoint 8">
       <r>   -0.3219    1.0000 </r>
       <r>    0.1147    1.0000 </r>
       <r>    1.6455    1.0000 </r>
       <r>    1.6455    1.0000 </r>
       <r>    1.7678    1.0000 </r>
       <r>    2.0011    1.0000 </r>
       <r>    2.3665    1.0000 </r>
       <r>    2.3665    1.0000 </r>
       <r>    2.8014    1.0000 </r>
       <r>    2.8014    1.0000 </r>
       <r>    3.9007    1.0000 </r>
       <r>    3.9062    1.0000 </r>
       <r>    4.4813    1.0000 </r>
       <r>    4.5692    1.0000 </r>
       <r>    4.8062    1.0000 </r>
       <r>    4.8356    1.0000 </r>
       <r>    4.8356    1.0000 </r>
       <r>    4.9037    1.0000 </r>
       <r>    5.6831    1.0000 </r>
       <r>    5.8260    0.9999 </r>
       <r>    6.8535    0.0045 </r>
       <r>    6.8535    0.0045 </r>
       <r>   12.8267    0.0000 </r>
       <r>   12.8267    0.0000 </r>
      </set>
      <set comment="kpoint 9">
       <r>   -2.4452    1.0000 </r>
       <r>    0.5168    1.0000 </r>
       <r>    0.5168    1.0000 </r>
       <r>    0.5424    1.0000 </r>
       <r>    0.8993    1.0000 </r>
       <r>    0.8993    1.0000 </r>
       <r>    0.9254    1.0000 </r>
       <r>    3.1271    1.0000 </r>
       <r>    3.3040    1.0000 </r>
       <r>    3.3263    1.0000 </r>
       <r>    4.9886    1.0000 </r>
       <r>    5.0790    1.0000 </r>
       <r>    5.9461    0.9987 </r>
       <r>    6.0312    0.9958 </r>
       <r>    6.0312    0.9958 </r>
       <r>    6.2570    1.0476 </r>
       <r>    6.3463    0.9993 </r>
       <r>    6.3463    0.9993 </r>
       <r>    6.7579   -0.0166 </r>
       <r>    6.7579   -0.0166 </r>
       <r>    6.7962   -0.0036 </r>
       <r>    8.6454    0.0000 </r>
       <r>    8.6454    0.0000 </r>
       <r>    9.5581    0.0000 </r>
      </set>
      <set comment="kpoint 10">
       <r>   -2.2582    1.0000 </r>
       <r>    0.5768    1.0000 </r>
       <r>    0.6506    1.0000 </r>
       <r>    0.6583    1.0000 </r>
       <r>    0.9733    1.0000 </r>
       <r>    1.0134    1.0000 </r>
       <r>    1.0507    1.0000 </r>
       <r>    3.0335    1.0000 </r>
       <r>    3.3836    1.0000 </r>
       <r>    3.4087    1.0000 </r>
       <r>    4.8878    1.0000 </r>
       <r>    5.1209    1.0000 </r>
       <r>    5.4181    1.0000 </r>
       <r>    5.4543    1.0000 </r>
       <r>    5.6999    1.0000 </r>
       <r>    6.0900    0.9955 </r>
       <r>    6.1790    1.0134 </r>
       <r>    6.2462    1.0437 </r>
       <r>    6.5943    0.0088 </r>
       <r>    6.7511   -0.0196 </r>
       <r>    6.7613   -0.0152 </r>
       <r>    7.9340    0.0000 </r>
       <r>    9.3348    0.0000 </r>
       <r>   10.1905    0.0000 </r>
      </set>
      <set comment="kpoint 11">
       <r>   -1.9831    1.0000 </r>
       <r>    0.6459    1.0000 </r>
       <r>    0.8258    1.0000 </r>
       <r>    0.8411    1.0000 </r>
       <r>    1.0822    1.0000 </r>
       <r>    1.1836    1.0000 </r>
       <r>    1.2337    1.0000 </r>
       <r>    2.8862    1.0000 </r>
       <r>    3.5170    1.0000 </r>
       <r>    3.5287    1.0000 </r>
       <r>    4.7328    1.0000 </r>
       <r>    4.8008    1.0000 </r>
       <r>    4.8937    1.0000 </r>
       <r>    5.2011    1.0000 </r>
       <r>    5.2475    1.0000 </r>
       <r>    5.8536    0.9998 </r>
       <r>    5.9402    0.9988 </r>
       <r>    6.0463    0.9954 </r>
       <r>    6.4024    0.8374 </r>
       <r>    6.7450   -0.0223 </r>
       <r>    6.7456   -0.0221 </r>
       <r>    7.2374    0.0000 </r>
       <r>   10.0471    0.0000 </r>
       <r>   10.9159    0.0000 </r>
      </set>
      <set comment="kpoint 12">
       <r>   -1.6276    1.0000 </r>
       <r>    0.6922    1.0000 </r>
       <r>    1.0373    1.0000 </r>
       <r>    1.0744    1.0000 </r>
       <r>    1.2236    1.0000 </r>
       <r>    1.4080    1.0000 </r>
       <r>    1.4649    1.0000 </r>
       <r>    2.7004    1.0000 </r>
       <r>    3.6736    1.0000 </r>
       <r>    3.6973    1.0000 </r>
       <r>    4.2102    1.0000 </r>
       <r>    4.3277    1.0000 </r>
       <r>    4.5588    1.0000 </r>
       <r>    4.7243    1.0000 </r>
       <r>    5.3075    1.0000 </r>
       <r>    5.5654    1.0000 </r>
       <r>    5.6472    1.0000 </r>
       <r>    5.7632    1.0000 </r>
       <r>    6.1689    1.0097 </r>
       <r>    6.6783   -0.0501 </r>
       <r>    6.7376   -0.0258 </r>
       <r>    6.7418   -0.0238 </r>
       <r>   10.7313    0.0000 </r>
       <r>   11.6674    0.0000 </r>
      </set>
      <set comment="kpoint 13">
       <r>   -1.2042    1.0000 </r>
       <r>    0.6649    1.0000 </r>
       <r>    1.2795    1.0000 </r>
       <r>    1.3272    1.0000 </r>
       <r>    1.3940    1.0000 </r>
       <r>    1.6830    1.0000 </r>
       <r>    1.7297    1.0000 </r>
       <r>    2.4885    1.0000 </r>
       <r>    3.6592    1.0000 </r>
       <r>    3.7829    1.0000 </r>
       <r>    3.8043    1.0000 </r>
       <r>    3.9169    1.0000 </r>
       <r>    4.2312    1.0000 </r>
       <r>    4.4297    1.0000 </r>
       <r>    5.2618    1.0000 </r>
       <r>    5.3342    1.0000 </r>
       <r>    5.4356    1.0000 </r>
       <r>    5.4375    1.0000 </r>
       <r>    5.8250    0.9999 </r>
       <r>    6.3245    1.0305 </r>
       <r>    6.7345   -0.0273 </r>
       <r>    6.7391   -0.0251 </r>
       <r>   11.3380    0.0000 </r>
       <r>   12.3382    0.0000 </r>
      </set>
      <set comment="kpoint 14">
       <r>   -0.7340    1.0000 </r>
       <r>    0.5036    1.0000 </r>
       <r>    1.5206    1.0000 </r>
       <r>    1.5584    1.0000 </r>
       <r>    1.5891    1.0000 </r>
       <r>    2.0044    1.0000 </r>
       <r>    2.0138    1.0000 </r>
       <r>    2.2616    1.0000 </r>
       <r>    3.1575    1.0000 </r>
       <r>    3.2732    1.0000 </r>
       <r>    3.8191    1.0000 </r>
       <r>    3.8812    1.0000 </r>
       <r>    4.1719    1.0000 </r>
       <r>    4.4754    1.0000 </r>
       <r>    4.9996    1.0000 </r>
       <r>    5.0527    1.0000 </r>
       <r>    5.1001    1.0000 </r>
       <r>    5.4217    1.0000 </r>
       <r>    5.5816    1.0000 </r>
       <r>    6.1004    0.9961 </r>
       <r>    6.7337   -0.0276 </r>
       <r>    6.7371   -0.0260 </r>
       <r>   11.8143    0.0000 </r>
       <r>   12.5028    0.0000 </r>
      </set>
      <set comment="kpoint 15">
       <r>   -0.2525    1.0000 </r>
       <r>    0.1837    1.0000 </r>
       <r>    1.6889    1.0000 </r>
       <r>    1.7018    1.0000 </r>
       <r>    1.8034    1.0000 </r>
       <r>    2.0302    1.0000 </r>
       <r>    2.3227    1.0000 </r>
       <r>    2.3663    1.0000 </r>
       <r>    2.7219    1.0000 </r>
       <r>    2.8104    1.0000 </r>
       <r>    3.7311    1.0000 </r>
       <r>    3.7447    1.0000 </r>
       <r>    4.4578    1.0000 </r>
       <r>    4.7102    1.0000 </r>
       <r>    4.7696    1.0000 </r>
       <r>    4.8507    1.0000 </r>
       <r>    4.8709    1.0000 </r>
       <r>    5.0397    1.0000 </r>
       <r>    5.7419    1.0000 </r>
       <r>    5.9140    0.9993 </r>
       <r>    6.7342   -0.0274 </r>
       <r>    6.7354   -0.0268 </r>
       <r>   12.1395    0.0000 </r>
       <r>   12.3560    0.0000 </r>
      </set>
      <set comment="kpoint 16">
       <r>   -2.0762    1.0000 </r>
       <r>    0.7132    1.0000 </r>
       <r>    0.7132    1.0000 </r>
       <r>    0.7463    1.0000 </r>
       <r>    1.0843    1.0000 </r>
       <r>    1.0843    1.0000 </r>
       <r>    1.1903    1.0000 </r>
       <r>    2.9787    1.0000 </r>
       <r>    3.4317    1.0000 </r>
       <r>    3.4697    1.0000 </r>
       <r>    4.8466    1.0000 </r>
       <r>    5.0838    1.0000 </r>
       <r>    5.0838    1.0000 </r>
       <r>    5.1277    1.0000 </r>
       <r>    5.1300    1.0000 </r>
       <r>    5.9368    0.9989 </r>
       <r>    6.1206    0.9981 </r>
       <r>    6.1206    0.9981 </r>
       <r>    6.5713    0.0644 </r>
       <r>    6.5713    0.0644 </r>
       <r>    6.6634   -0.0516 </r>
       <r>    8.5985    0.0000 </r>
       <r>    8.5985    0.0000 </r>
       <r>   10.7326    0.0000 </r>
      </set>
      <set comment="kpoint 17">
       <r>   -1.8083    1.0000 </r>
       <r>    0.7857    1.0000 </r>
       <r>    0.8816    1.0000 </r>
       <r>    0.9079    1.0000 </r>
       <r>    1.1887    1.0000 </r>
       <r>    1.2501    1.0000 </r>
       <r>    1.3844    1.0000 </r>
       <r>    2.8646    1.0000 </r>
       <r>    3.5417    1.0000 </r>
       <r>    3.5549    1.0000 </r>
       <r>    4.4865    1.0000 </r>
       <r>    4.6673    1.0000 </r>
       <r>    4.6907    1.0000 </r>
       <r>    4.7336    1.0000 </r>
       <r>    5.2096    1.0000 </r>
       <r>    5.7282    1.0000 </r>
       <r>    5.9206    0.9992 </r>
       <r>    5.9615    0.9983 </r>
       <r>    6.3504    0.9914 </r>
       <r>    6.5517    0.1279 </r>
       <r>    6.5964    0.0049 </r>
       <r>    7.8702    0.0000 </r>
       <r>    9.2607    0.0000 </r>
       <r>   11.3878    0.0000 </r>
      </set>
      <set comment="kpoint 18">
       <r>   -1.4622    1.0000 </r>
       <r>    0.8354    1.0000 </r>
       <r>    1.0640    1.0000 </r>
       <r>    1.1475    1.0000 </r>
       <r>    1.3239    1.0000 </r>
       <r>    1.4683    1.0000 </r>
       <r>    1.6154    1.0000 </r>
       <r>    2.7034    1.0000 </r>
       <r>    3.6462    1.0000 </r>
       <r>    3.7086    1.0000 </r>
       <r>    3.9240    1.0000 </r>
       <r>    4.2068    1.0000 </r>
       <r>    4.2226    1.0000 </r>
       <r>    4.5983    1.0000 </r>
       <r>    5.3386    1.0000 </r>
       <r>    5.4744    1.0000 </r>
       <r>    5.6613    1.0000 </r>
       <r>    5.7047    1.0000 </r>
       <r>    6.1006    0.9961 </r>
       <r>    6.5386    0.1782 </r>
       <r>    6.5569    0.1098 </r>
       <r>    7.2467    0.0000 </r>
       <r>    9.8863    0.0000 </r>
       <r>   12.0562    0.0000 </r>
      </set>
      <set comment="kpoint 19">
       <r>   -1.0497    1.0000 </r>
       <r>    0.8084    1.0000 </r>
       <r>    1.2892    1.0000 </r>
       <r>    1.4105    1.0000 </r>
       <r>    1.4862    1.0000 </r>
       <r>    1.7341    1.0000 </r>
       <r>    1.8575    1.0000 </r>
       <r>    2.5115    1.0000 </r>
       <r>    3.4063    1.0000 </r>
       <r>    3.6994    1.0000 </r>
       <r>    3.7181    1.0000 </r>
       <r>    3.8284    1.0000 </r>
       <r>    3.9203    1.0000 </r>
       <r>    4.5193    1.0000 </r>
       <r>    5.2055    1.0000 </r>
       <r>    5.3729    1.0000 </r>
       <r>    5.3928    1.0000 </r>
       <r>    5.5010    1.0000 </r>
       <r>    5.7990    1.0000 </r>
       <r>    6.5300    0.2144 </r>
       <r>    6.5353    0.1918 </r>
       <r>    6.7664   -0.0132 </r>
       <r>   10.4470    0.0000 </r>
       <r>   12.1814    0.0000 </r>
      </set>
      <set comment="kpoint 20">
       <r>   -0.5905    1.0000 </r>
       <r>    0.6423    1.0000 </r>
       <r>    1.5415    1.0000 </r>
       <r>    1.6578    1.0000 </r>
       <r>    1.6711    1.0000 </r>
       <r>    2.0385    1.0000 </r>
       <r>    2.0765    1.0000 </r>
       <r>    2.3020    1.0000 </r>
       <r>    2.9469    1.0000 </r>
       <r>    3.2495    1.0000 </r>
       <r>    3.5735    1.0000 </r>
       <r>    3.6570    1.0000 </r>
       <r>    4.1682    1.0000 </r>
       <r>    4.5855    1.0000 </r>
       <r>    4.9770    1.0000 </r>
       <r>    5.0655    1.0000 </r>
       <r>    5.1012    1.0000 </r>
       <r>    5.4511    1.0000 </r>
       <r>    5.6894    1.0000 </r>
       <r>    6.4132    0.7931 </r>
       <r>    6.5243    0.2395 </r>
       <r>    6.5247    0.2377 </r>
       <r>   10.9210    0.0000 </r>
       <r>   11.9073    0.0000 </r>
      </set>
      <set comment="kpoint 21">
       <r>   -0.1172    1.0000 </r>
       <r>    0.3173    1.0000 </r>
       <r>    1.7631    1.0000 </r>
       <r>    1.8117    1.0000 </r>
       <r>    1.8732    1.0000 </r>
       <r>    2.0862    1.0000 </r>
       <r>    2.2605    1.0000 </r>
       <r>    2.3464    1.0000 </r>
       <r>    2.6040    1.0000 </r>
       <r>    2.8214    1.0000 </r>
       <r>    3.4976    1.0000 </r>
       <r>    3.5559    1.0000 </r>
       <r>    4.4450    1.0000 </r>
       <r>    4.7458    1.0000 </r>
       <r>    4.7983    1.0000 </r>
       <r>    4.8617    1.0000 </r>
       <r>    4.9093    1.0000 </r>
       <r>    5.1021    1.0000 </r>
       <r>    5.9006    0.9994 </r>
       <r>    6.1369    1.0009 </r>
       <r>    6.5208    0.2555 </r>
       <r>    6.5211    0.2541 </r>
       <r>   11.3049    0.0000 </r>
       <r>   11.6209    0.0000 </r>
      </set>
      <set comment="kpoint 22">
       <r>   -1.5514    1.0000 </r>
       <r>    0.9809    1.0000 </r>
       <r>    0.9860    1.0000 </r>
       <r>    0.9860    1.0000 </r>
       <r>    1.3478    1.0000 </r>
       <r>    1.3478    1.0000 </r>
       <r>    1.5826    1.0000 </r>
       <r>    2.7996    1.0000 </r>
       <r>    3.5917    1.0000 </r>
       <r>    3.6167    1.0000 </r>
       <r>    4.1110    1.0000 </r>
       <r>    4.1110    1.0000 </r>
       <r>    4.3890    1.0000 </r>
       <r>    4.6745    1.0000 </r>
       <r>    5.2923    1.0000 </r>
       <r>    5.5519    1.0000 </r>
       <r>    5.8128    0.9999 </r>
       <r>    5.8128    0.9999 </r>
       <r>    6.3033    1.0466 </r>
       <r>    6.3033    1.0466 </r>
       <r>    6.4644    0.5425 </r>
       <r>    8.4918    0.0000 </r>
       <r>    8.4918    0.0000 </r>
       <r>   11.9557    0.0000 </r>
      </set>
      <set comment="kpoint 23">
       <r>   -1.2196    1.0000 </r>
       <r>    1.0408    1.0000 </r>
       <r>    1.1276    1.0000 </r>
       <r>    1.2340    1.0000 </r>
       <r>    1.4738    1.0000 </r>
       <r>    1.5575    1.0000 </r>
       <r>    1.8059    1.0000 </r>
       <r>    2.6847    1.0000 </r>
       <r>    3.5911    1.0000 </r>
       <r>    3.6248    1.0000 </r>
       <r>    3.7323    1.0000 </r>
       <r>    3.7529    1.0000 </r>
       <r>    4.0172    1.0000 </r>
       <r>    4.5796    1.0000 </r>
       <r>    5.3374    1.0000 </r>
       <r>    5.4497    1.0000 </r>
       <r>    5.5997    1.0000 </r>
       <r>    5.6043    1.0000 </r>
       <r>    6.0259    0.9960 </r>
       <r>    6.2727    1.0511 </r>
       <r>    6.3684    0.9497 </r>
       <r>    7.8192    0.0000 </r>
       <r>    9.0800    0.0000 </r>
       <r>   11.9769    0.0000 </r>
      </set>
      <set comment="kpoint 24">
       <r>   -0.8240    1.0000 </r>
       <r>    1.0133    1.0000 </r>
       <r>    1.3220    1.0000 </r>
       <r>    1.5106    1.0000 </r>
       <r>    1.6236    1.0000 </r>
       <r>    1.8113    1.0000 </r>
       <r>    2.0219    1.0000 </r>
       <r>    2.5309    1.0000 </r>
       <r>    3.1160    1.0000 </r>
       <r>    3.4247    1.0000 </r>
       <r>    3.6126    1.0000 </r>
       <r>    3.6162    1.0000 </r>
       <r>    3.9430    1.0000 </r>
       <r>    4.5266    1.0000 </r>
       <r>    5.1097    1.0000 </r>
       <r>    5.3238    1.0000 </r>
       <r>    5.3480    1.0000 </r>
       <r>    5.6574    1.0000 </r>
       <r>    5.7210    1.0000 </r>
       <r>    6.2549    1.0469 </r>
       <r>    6.3063    1.0451 </r>
       <r>    7.2700    0.0000 </r>
       <r>    9.6160    0.0000 </r>
       <r>   11.5746    0.0000 </r>
      </set>
      <set comment="kpoint 25">
       <r>   -0.3826    1.0000 </r>
       <r>    0.8381    1.0000 </r>
       <r>    1.5610    1.0000 </r>
       <r>    1.7846    1.0000 </r>
       <r>    1.7920    1.0000 </r>
       <r>    2.0898    1.0000 </r>
       <r>    2.1814    1.0000 </r>
       <r>    2.3530    1.0000 </r>
       <r>    2.7038    1.0000 </r>
       <r>    3.2069    1.0000 </r>
       <r>    3.2662    1.0000 </r>
       <r>    3.5288    1.0000 </r>
       <r>    4.1735    1.0000 </r>
       <r>    4.5915    1.0000 </r>
       <r>    4.9205    1.0000 </r>
       <r>    5.0167    1.0000 </r>
       <r>    5.0987    1.0000 </r>
       <r>    5.3916    1.0000 </r>
       <r>    5.9003    0.9994 </r>
       <r>    6.2456    1.0435 </r>
       <r>    6.2696    1.0506 </r>
       <r>    6.8340    0.0030 </r>
       <r>   10.0876    0.0000 </r>
       <r>   11.2047    0.0000 </r>
      </set>
      <set comment="kpoint 26">
       <r>    0.0762    1.0000 </r>
       <r>    0.5058    1.0000 </r>
       <r>    1.8275    1.0000 </r>
       <r>    1.9698    1.0000 </r>
       <r>    1.9743    1.0000 </r>
       <r>    2.1640    1.0000 </r>
       <r>    2.2325    1.0000 </r>
       <r>    2.2473    1.0000 </r>
       <r>    2.5330    1.0000 </r>
       <r>    2.8271    1.0000 </r>
       <r>    3.2746    1.0000 </r>
       <r>    3.3898    1.0000 </r>
       <r>    4.4325    1.0000 </r>
       <r>    4.7148    1.0000 </r>
       <r>    4.7842    1.0000 </r>
       <r>    4.8397    1.0000 </r>
       <r>    4.9082    1.0000 </r>
       <r>    5.0658    1.0000 </r>
       <r>    6.1727    1.0110 </r>
       <r>    6.2438    1.0427 </r>
       <r>    6.2507    1.0454 </r>
       <r>    6.4784    0.4683 </r>
       <r>   10.4952    0.0000 </r>
       <r>   10.8566    0.0000 </r>
      </set>
      <set comment="kpoint 27">
       <r>   -0.9068    1.0000 </r>
       <r>    1.2335    1.0000 </r>
       <r>    1.2955    1.0000 </r>
       <r>    1.2955    1.0000 </r>
       <r>    1.6720    1.0000 </r>
       <r>    1.6720    1.0000 </r>
       <r>    2.0129    1.0000 </r>
       <r>    2.6285    1.0000 </r>
       <r>    3.2732    1.0000 </r>
       <r>    3.2732    1.0000 </r>
       <r>    3.6038    1.0000 </r>
       <r>    3.7629    1.0000 </r>
       <r>    3.8487    1.0000 </r>
       <r>    4.5116    1.0000 </r>
       <r>    5.1627    1.0000 </r>
       <r>    5.4422    1.0000 </r>
       <r>    5.4422    1.0000 </r>
       <r>    5.6461    1.0000 </r>
       <r>    5.9719    0.9979 </r>
       <r>    5.9719    0.9979 </r>
       <r>    6.2082    1.0262 </r>
       <r>    8.3705    0.0000 </r>
       <r>    8.3705    0.0000 </r>
       <r>   11.4501    0.0000 </r>
      </set>
      <set comment="kpoint 28">
       <r>   -0.5349    1.0000 </r>
       <r>    1.2644    1.0000 </r>
       <r>    1.3840    1.0000 </r>
       <r>    1.5802    1.0000 </r>
       <r>    1.8049    1.0000 </r>
       <r>    1.9137    1.0000 </r>
       <r>    2.2019    1.0000 </r>
       <r>    2.5317    1.0000 </r>
       <r>    2.8549    1.0000 </r>
       <r>    3.0500    1.0000 </r>
       <r>    3.4614    1.0000 </r>
       <r>    3.5531    1.0000 </r>
       <r>    3.9995    1.0000 </r>
       <r>    4.4665    1.0000 </r>
       <r>    4.9735    1.0000 </r>
       <r>    5.2047    1.0000 </r>
       <r>    5.2328    1.0000 </r>
       <r>    5.6508    1.0000 </r>
       <r>    5.9015    0.9994 </r>
       <r>    5.9423    0.9987 </r>
       <r>    6.0885    0.9954 </r>
       <r>    7.7769    0.0000 </r>
       <r>    8.8840    0.0000 </r>
       <r>   10.9673    0.0000 </r>
      </set>
      <set comment="kpoint 29">
       <r>   -0.1194    1.0000 </r>
       <r>    1.0729    1.0000 </r>
       <r>    1.5797    1.0000 </r>
       <r>    1.8685    1.0000 </r>
       <r>    1.9493    1.0000 </r>
       <r>    2.1731    1.0000 </r>
       <r>    2.3196    1.0000 </r>
       <r>    2.4032    1.0000 </r>
       <r>    2.4983    1.0000 </r>
       <r>    2.9946    1.0000 </r>
       <r>    3.1391    1.0000 </r>
       <r>    3.4365    1.0000 </r>
       <r>    4.1914    1.0000 </r>
       <r>    4.5260    1.0000 </r>
       <r>    4.8177    1.0000 </r>
       <r>    4.9291    1.0000 </r>
       <r>    5.0136    1.0000 </r>
       <r>    5.3183    1.0000 </r>
       <r>    5.9313    0.9990 </r>
       <r>    6.0081    0.9967 </r>
       <r>    6.1954    1.0203 </r>
       <r>    7.2891    0.0000 </r>
       <r>    9.3498    0.0000 </r>
       <r>   10.5449    0.0000 </r>
      </set>
      <set comment="kpoint 30">
       <r>    0.3156    1.0000 </r>
       <r>    0.7329    1.0000 </r>
       <r>    1.8186    1.0000 </r>
       <r>    2.0656    1.0000 </r>
       <r>    2.1015    1.0000 </r>
       <r>    2.1672    1.0000 </r>
       <r>    2.2559    1.0000 </r>
       <r>    2.3048    1.0000 </r>
       <r>    2.5293    1.0000 </r>
       <r>    2.8220    1.0000 </r>
       <r>    3.0922    1.0000 </r>
       <r>    3.2643    1.0000 </r>
       <r>    4.4096    1.0000 </r>
       <r>    4.6562    1.0000 </r>
       <r>    4.7152    1.0000 </r>
       <r>    4.7607    1.0000 </r>
       <r>    4.8365    1.0000 </r>
       <r>    4.9950    1.0000 </r>
       <r>    5.9364    0.9989 </r>
       <r>    5.9601    0.9983 </r>
       <r>    6.5201    0.2586 </r>
       <r>    6.8793    0.0049 </r>
       <r>    9.7690    0.0000 </r>
       <r>   10.1574    0.0000 </r>
      </set>
      <set comment="kpoint 31">
       <r>   -0.1931    1.0000 </r>
       <r>    1.4779    1.0000 </r>
       <r>    1.5348    1.0000 </r>
       <r>    1.5348    1.0000 </r>
       <r>    2.0275    1.0000 </r>
       <r>    2.0275    1.0000 </r>
       <r>    2.3656    1.0000 </r>
       <r>    2.5020    1.0000 </r>
       <r>    2.7221    1.0000 </r>
       <r>    2.7221    1.0000 </r>
       <r>    3.2671    1.0000 </r>
       <r>    3.4837    1.0000 </r>
       <r>    4.0929    1.0000 </r>
       <r>    4.4172    1.0000 </r>
       <r>    4.8140    1.0000 </r>
       <r>    5.0346    1.0000 </r>
       <r>    5.0346    1.0000 </r>
       <r>    5.6123    1.0000 </r>
       <r>    5.6123    1.0000 </r>
       <r>    5.9062    0.9994 </r>
       <r>    6.2030    1.0238 </r>
       <r>    8.2640    0.0000 </r>
       <r>    8.2640    0.0000 </r>
       <r>   10.4322    0.0000 </r>
      </set>
      <set comment="kpoint 32">
       <r>    0.1865    1.0000 </r>
       <r>    1.3154    1.0000 </r>
       <r>    1.6028    1.0000 </r>
       <r>    1.7715    1.0000 </r>
       <r>    2.1378    1.0000 </r>
       <r>    2.2829    1.0000 </r>
       <r>    2.4393    1.0000 </r>
       <r>    2.4643    1.0000 </r>
       <r>    2.4714    1.0000 </r>
       <r>    2.7826    1.0000 </r>
       <r>    3.0424    1.0000 </r>
       <r>    3.3640    1.0000 </r>
       <r>    4.2046    1.0000 </r>
       <r>    4.4816    1.0000 </r>
       <r>    4.6759    1.0000 </r>
       <r>    4.7907    1.0000 </r>
       <r>    4.8464    1.0000 </r>
       <r>    5.2787    1.0000 </r>
       <r>    5.6046    1.0000 </r>
       <r>    5.7694    1.0000 </r>
       <r>    6.5403    0.1714 </r>
       <r>    7.7451    0.0000 </r>
       <r>    8.7201    0.0000 </r>
       <r>    9.9696    0.0000 </r>
      </set>
      <set comment="kpoint 33">
       <r>    0.5846    1.0000 </r>
       <r>    0.9748    1.0000 </r>
       <r>    1.7475    1.0000 </r>
       <r>    1.8540    1.0000 </r>
       <r>    2.2466    1.0000 </r>
       <r>    2.3506    1.0000 </r>
       <r>    2.3862    1.0000 </r>
       <r>    2.4531    1.0000 </r>
       <r>    2.5497    1.0000 </r>
       <r>    2.8029    1.0000 </r>
       <r>    2.9651    1.0000 </r>
       <r>    3.1792    1.0000 </r>
       <r>    4.3474    1.0000 </r>
       <r>    4.5485    1.0000 </r>
       <r>    4.6235    1.0000 </r>
       <r>    4.6812    1.0000 </r>
       <r>    4.6904    1.0000 </r>
       <r>    4.9598    1.0000 </r>
       <r>    5.6252    1.0000 </r>
       <r>    5.6778    1.0000 </r>
       <r>    6.9049    0.0045 </r>
       <r>    7.3010    0.0000 </r>
       <r>    9.1449    0.0000 </r>
       <r>    9.5522    0.0000 </r>
      </set>
      <set comment="kpoint 34">
       <r>    0.5198    1.0000 </r>
       <r>    1.5171    1.0000 </r>
       <r>    1.5171    1.0000 </r>
       <r>    1.6312    1.0000 </r>
       <r>    2.3444    1.0000 </r>
       <r>    2.3444    1.0000 </r>
       <r>    2.4509    1.0000 </r>
       <r>    2.5717    1.0000 </r>
       <r>    2.6577    1.0000 </r>
       <r>    2.6577    1.0000 </r>
       <r>    2.9191    1.0000 </r>
       <r>    3.2704    1.0000 </r>
       <r>    4.2013    1.0000 </r>
       <r>    4.5351    1.0000 </r>
       <r>    4.5560    1.0000 </r>
       <r>    4.6299    1.0000 </r>
       <r>    4.6299    1.0000 </r>
       <r>    5.2833    1.0000 </r>
       <r>    5.2833    1.0000 </r>
       <r>    5.5720    1.0000 </r>
       <r>    6.9132    0.0042 </r>
       <r>    8.1874    0.0000 </r>
       <r>    8.1874    0.0000 </r>
       <r>    9.4753    0.0000 </r>
      </set>
      <set comment="kpoint 35">
       <r>    0.8639    1.0000 </r>
       <r>    1.2022    1.0000 </r>
       <r>    1.6294    1.0000 </r>
       <r>    1.6520    1.0000 </r>
       <r>    2.3957    1.0000 </r>
       <r>    2.4347    1.0000 </r>
       <r>    2.5249    1.0000 </r>
       <r>    2.5964    1.0000 </r>
       <r>    2.6543    1.0000 </r>
       <r>    2.7784    1.0000 </r>
       <r>    2.8950    1.0000 </r>
       <r>    3.1127    1.0000 </r>
       <r>    4.2614    1.0000 </r>
       <r>    4.4166    1.0000 </r>
       <r>    4.4618    1.0000 </r>
       <r>    4.5008    1.0000 </r>
       <r>    4.7364    1.0000 </r>
       <r>    4.9868    1.0000 </r>
       <r>    5.3311    1.0000 </r>
       <r>    5.4257    1.0000 </r>
       <r>    7.3065    0.0000 </r>
       <r>    7.7253    0.0000 </r>
       <r>    8.6134    0.0000 </r>
       <r>    9.0344    0.0000 </r>
      </set>
      <set comment="kpoint 36">
       <r>    1.1361    1.0000 </r>
       <r>    1.3915    1.0000 </r>
       <r>    1.3915    1.0000 </r>
       <r>    1.5374    1.0000 </r>
       <r>    2.4960    1.0000 </r>
       <r>    2.5280    1.0000 </r>
       <r>    2.5280    1.0000 </r>
       <r>    2.6180    1.0000 </r>
       <r>    2.8090    1.0000 </r>
       <r>    2.8582    1.0000 </r>
       <r>    2.8582    1.0000 </r>
       <r>    3.0178    1.0000 </r>
       <r>    4.2377    1.0000 </r>
       <r>    4.3274    1.0000 </r>
       <r>    4.3274    1.0000 </r>
       <r>    4.3420    1.0000 </r>
       <r>    4.8715    1.0000 </r>
       <r>    5.0740    1.0000 </r>
       <r>    5.0740    1.0000 </r>
       <r>    5.2211    1.0000 </r>
       <r>    7.7186    0.0000 </r>
       <r>    8.1477    0.0000 </r>
       <r>    8.1477    0.0000 </r>
       <r>    8.5766    0.0000 </r>
      </set>
      <set comment="kpoint 37">
       <r>   -2.3522    1.0000 </r>
       <r>    0.5760    1.0000 </r>
       <r>    0.5760    1.0000 </r>
       <r>    0.5760    1.0000 </r>
       <r>    0.9626    1.0000 </r>
       <r>    0.9626    1.0000 </r>
       <r>    0.9626    1.0000 </r>
       <r>    3.1031    1.0000 </r>
       <r>    3.3423    1.0000 </r>
       <r>    3.3423    1.0000 </r>
       <r>    5.0211    1.0000 </r>
       <r>    5.0211    1.0000 </r>
       <r>    5.7705    1.0000 </r>
       <r>    5.7705    1.0000 </r>
       <r>    5.7705    1.0000 </r>
       <r>    6.1679    1.0093 </r>
       <r>    6.1679    1.0093 </r>
       <r>    6.1679    1.0093 </r>
       <r>    6.7583   -0.0165 </r>
       <r>    6.7583   -0.0165 </r>
       <r>    6.7583   -0.0165 </r>
       <r>    9.0429    0.0000 </r>
       <r>    9.0429    0.0000 </r>
       <r>    9.0429    0.0000 </r>
      </set>
      <set comment="kpoint 38">
       <r>   -2.1680    1.0000 </r>
       <r>    0.6358    1.0000 </r>
       <r>    0.6917    1.0000 </r>
       <r>    0.6917    1.0000 </r>
       <r>    1.0361    1.0000 </r>
       <r>    1.0876    1.0000 </r>
       <r>    1.0876    1.0000 </r>
       <r>    3.0234    1.0000 </r>
       <r>    3.4075    1.0000 </r>
       <r>    3.4188    1.0000 </r>
       <r>    4.9116    1.0000 </r>
       <r>    5.0852    1.0000 </r>
       <r>    5.2746    1.0000 </r>
       <r>    5.2746    1.0000 </r>
       <r>    5.4386    1.0000 </r>
       <r>    5.9999    0.9970 </r>
       <r>    6.0140    0.9964 </r>
       <r>    6.0140    0.9964 </r>
       <r>    6.6845   -0.0486 </r>
       <r>    6.7306   -0.0291 </r>
       <r>    6.7306   -0.0291 </r>
       <r>    8.3092    0.0000 </r>
       <r>    9.6353    0.0000 </r>
       <r>    9.6353    0.0000 </r>
      </set>
      <set comment="kpoint 39">
       <r>   -1.8972    1.0000 </r>
       <r>    0.7044    1.0000 </r>
       <r>    0.8588    1.0000 </r>
       <r>    0.8588    1.0000 </r>
       <r>    1.1444    1.0000 </r>
       <r>    1.2699    1.0000 </r>
       <r>    1.2699    1.0000 </r>
       <r>    2.8880    1.0000 </r>
       <r>    3.5219    1.0000 </r>
       <r>    3.5329    1.0000 </r>
       <r>    4.7187    1.0000 </r>
       <r>    4.7187    1.0000 </r>
       <r>    4.7656    1.0000 </r>
       <r>    4.9912    1.0000 </r>
       <r>    5.1786    1.0000 </r>
       <r>    5.7703    1.0000 </r>
       <r>    5.8150    0.9999 </r>
       <r>    5.8150    0.9999 </r>
       <r>    6.5788    0.0442 </r>
       <r>    6.6973   -0.0442 </r>
       <r>    6.6973   -0.0442 </r>
       <r>    7.5589    0.0000 </r>
       <r>   10.2904    0.0000 </r>
       <r>   10.2904    0.0000 </r>
      </set>
      <set comment="kpoint 40">
       <r>   -1.5473    1.0000 </r>
       <r>    0.7503    1.0000 </r>
       <r>    1.0703    1.0000 </r>
       <r>    1.0703    1.0000 </r>
       <r>    1.2843    1.0000 </r>
       <r>    1.4997    1.0000 </r>
       <r>    1.4997    1.0000 </r>
       <r>    2.7121    1.0000 </r>
       <r>    3.6591    1.0000 </r>
       <r>    3.6841    1.0000 </r>
       <r>    4.1669    1.0000 </r>
       <r>    4.1669    1.0000 </r>
       <r>    4.4948    1.0000 </r>
       <r>    4.6160    1.0000 </r>
       <r>    5.2983    1.0000 </r>
       <r>    5.4992    1.0000 </r>
       <r>    5.5603    1.0000 </r>
       <r>    5.5603    1.0000 </r>
       <r>    6.4460    0.6382 </r>
       <r>    6.6712   -0.0512 </r>
       <r>    6.6712   -0.0512 </r>
       <r>    6.8718    0.0049 </r>
       <r>   10.9359    0.0000 </r>
       <r>   10.9359    0.0000 </r>
      </set>
      <set comment="kpoint 41">
       <r>   -1.1306    1.0000 </r>
       <r>    0.7223    1.0000 </r>
       <r>    1.3145    1.0000 </r>
       <r>    1.3145    1.0000 </r>
       <r>    1.4517    1.0000 </r>
       <r>    1.7591    1.0000 </r>
       <r>    1.7591    1.0000 </r>
       <r>    2.5094    1.0000 </r>
       <r>    3.6454    1.0000 </r>
       <r>    3.6454    1.0000 </r>
       <r>    3.7583    1.0000 </r>
       <r>    3.8707    1.0000 </r>
       <r>    4.0435    1.0000 </r>
       <r>    4.5393    1.0000 </r>
       <r>    5.2058    1.0000 </r>
       <r>    5.2783    1.0000 </r>
       <r>    5.2783    1.0000 </r>
       <r>    5.4402    1.0000 </r>
       <r>    6.2671    1.0502 </r>
       <r>    6.2920    1.0504 </r>
       <r>    6.6541   -0.0507 </r>
       <r>    6.6541   -0.0507 </r>
       <r>   11.5050    0.0000 </r>
       <r>   11.5050    0.0000 </r>
      </set>
      <set comment="kpoint 42">
       <r>   -0.6675    1.0000 </r>
       <r>    0.5600    1.0000 </r>
       <r>    1.5633    1.0000 </r>
       <r>    1.5633    1.0000 </r>
       <r>    1.6417    1.0000 </r>
       <r>    2.0242    1.0000 </r>
       <r>    2.0242    1.0000 </r>
       <r>    2.2914    1.0000 </r>
       <r>    3.1742    1.0000 </r>
       <r>    3.1742    1.0000 </r>
       <r>    3.7359    1.0000 </r>
       <r>    3.7391    1.0000 </r>
       <r>    4.0907    1.0000 </r>
       <r>    4.6420    1.0000 </r>
       <r>    4.9067    1.0000 </r>
       <r>    5.0220    1.0000 </r>
       <r>    5.0220    1.0000 </r>
       <r>    5.5995    1.0000 </r>
       <r>    5.7411    1.0000 </r>
       <r>    6.1236    0.9986 </r>
       <r>    6.6443   -0.0478 </r>
       <r>    6.6443   -0.0478 </r>
       <r>   11.9162    0.0000 </r>
       <r>   11.9162    0.0000 </r>
      </set>
      <set comment="kpoint 43">
       <r>   -0.1923    1.0000 </r>
       <r>    0.2403    1.0000 </r>
       <r>    1.7428    1.0000 </r>
       <r>    1.7428    1.0000 </r>
       <r>    1.8493    1.0000 </r>
       <r>    2.0683    1.0000 </r>
       <r>    2.2668    1.0000 </r>
       <r>    2.2668    1.0000 </r>
       <r>    2.8000    1.0000 </r>
       <r>    2.8000    1.0000 </r>
       <r>    3.6187    1.0000 </r>
       <r>    3.6516    1.0000 </r>
       <r>    4.3405    1.0000 </r>
       <r>    4.6149    1.0000 </r>
       <r>    4.8630    1.0000 </r>
       <r>    4.8630    1.0000 </r>
       <r>    4.9135    1.0000 </r>
       <r>    5.2887    1.0000 </r>
       <r>    5.7706    1.0000 </r>
       <r>    5.9476    0.9986 </r>
       <r>    6.6398   -0.0458 </r>
       <r>    6.6398   -0.0458 </r>
       <r>   12.1132    0.0000 </r>
       <r>   12.1132    0.0000 </r>
      </set>
      <set comment="kpoint 44">
       <r>   -1.9897    1.0000 </r>
       <r>    0.7507    1.0000 </r>
       <r>    0.7507    1.0000 </r>
       <r>    0.7767    1.0000 </r>
       <r>    1.1606    1.0000 </r>
       <r>    1.1606    1.0000 </r>
       <r>    1.2285    1.0000 </r>
       <r>    2.9766    1.0000 </r>
       <r>    3.4508    1.0000 </r>
       <r>    3.4704    1.0000 </r>
       <r>    4.8966    1.0000 </r>
       <r>    4.9556    1.0000 </r>
       <r>    4.9556    1.0000 </r>
       <r>    4.9664    1.0000 </r>
       <r>    5.0816    1.0000 </r>
       <r>    5.8150    0.9999 </r>
       <r>    5.8538    0.9998 </r>
       <r>    5.8538    0.9998 </r>
       <r>    6.6707   -0.0513 </r>
       <r>    6.6707   -0.0513 </r>
       <r>    6.6826   -0.0491 </r>
       <r>    8.8649    0.0000 </r>
       <r>    8.8649    0.0000 </r>
       <r>   10.1287    0.0000 </r>
      </set>
      <set comment="kpoint 45">
       <r>   -1.7275    1.0000 </r>
       <r>    0.8181    1.0000 </r>
       <r>    0.9083    1.0000 </r>
       <r>    0.9165    1.0000 </r>
       <r>    1.2680    1.0000 </r>
       <r>    1.3423    1.0000 </r>
       <r>    1.4235    1.0000 </r>
       <r>    2.8746    1.0000 </r>
       <r>    3.5404    1.0000 </r>
       <r>    3.5521    1.0000 </r>
       <r>    4.4208    1.0000 </r>
       <r>    4.5403    1.0000 </r>
       <r>    4.5483    1.0000 </r>
       <r>    4.7932    1.0000 </r>
       <r>    5.1738    1.0000 </r>
       <r>    5.6202    1.0000 </r>
       <r>    5.6244    1.0000 </r>
       <r>    5.7005    1.0000 </r>
       <r>    6.5754    0.0531 </r>
       <r>    6.6166   -0.0262 </r>
       <r>    6.6197   -0.0297 </r>
       <r>    8.0798    0.0000 </r>
       <r>    9.4708    0.0000 </r>
       <r>   10.7083    0.0000 </r>
      </set>
      <set comment="kpoint 46">
       <r>   -1.3889    1.0000 </r>
       <r>    0.8623    1.0000 </r>
       <r>    1.0867    1.0000 </r>
       <r>    1.1268    1.0000 </r>
       <r>    1.4058    1.0000 </r>
       <r>    1.5703    1.0000 </r>
       <r>    1.6536    1.0000 </r>
       <r>    2.7258    1.0000 </r>
       <r>    3.6343    1.0000 </r>
       <r>    3.6802    1.0000 </r>
       <r>    3.8991    1.0000 </r>
       <r>    4.0723    1.0000 </r>
       <r>    4.1149    1.0000 </r>
       <r>    4.6817    1.0000 </r>
       <r>    5.3153    1.0000 </r>
       <r>    5.3540    1.0000 </r>
       <r>    5.4042    1.0000 </r>
       <r>    5.5000    1.0000 </r>
       <r>    6.4320    0.7072 </r>
       <r>    6.5596    0.1005 </r>
       <r>    6.5598    0.0998 </r>
       <r>    7.3635    0.0000 </r>
       <r>   10.0647    0.0000 </r>
       <r>   11.2901    0.0000 </r>
      </set>
      <set comment="kpoint 47">
       <r>   -0.9859    1.0000 </r>
       <r>    0.8320    1.0000 </r>
       <r>    1.3085    1.0000 </r>
       <r>    1.3724    1.0000 </r>
       <r>    1.5677    1.0000 </r>
       <r>    1.8216    1.0000 </r>
       <r>    1.8885    1.0000 </r>
       <r>    2.5457    1.0000 </r>
       <r>    3.4185    1.0000 </r>
       <r>    3.6125    1.0000 </r>
       <r>    3.6767    1.0000 </r>
       <r>    3.7373    1.0000 </r>
       <r>    3.8456    1.0000 </r>
       <r>    4.6526    1.0000 </r>
       <r>    5.0674    1.0000 </r>
       <r>    5.1681    1.0000 </r>
       <r>    5.2613    1.0000 </r>
       <r>    5.4864    1.0000 </r>
       <r>    6.2106    1.0274 </r>
       <r>    6.5145    0.2850 </r>
       <r>    6.5158    0.2787 </r>
       <r>    6.7733   -0.0106 </r>
       <r>   10.6071    0.0000 </r>
       <r>   11.7589    0.0000 </r>
      </set>
      <set comment="kpoint 48">
       <r>   -0.5377    1.0000 </r>
       <r>    0.6670    1.0000 </r>
       <r>    1.5624    1.0000 </r>
       <r>    1.6341    1.0000 </r>
       <r>    1.7475    1.0000 </r>
       <r>    2.0490    1.0000 </r>
       <r>    2.0777    1.0000 </r>
       <r>    2.3478    1.0000 </r>
       <r>    3.0150    1.0000 </r>
       <r>    3.1994    1.0000 </r>
       <r>    3.5017    1.0000 </r>
       <r>    3.6212    1.0000 </r>
       <r>    4.0393    1.0000 </r>
       <r>    4.7824    1.0000 </r>
       <r>    4.7842    1.0000 </r>
       <r>    4.9539    1.0000 </r>
       <r>    5.0260    1.0000 </r>
       <r>    5.6786    1.0000 </r>
       <r>    5.8584    0.9998 </r>
       <r>    6.3740    0.9344 </r>
       <r>    6.4864    0.4266 </r>
       <r>    6.4880    0.4183 </r>
       <r>   11.0698    0.0000 </r>
       <r>   11.8937    0.0000 </r>
      </set>
      <set comment="kpoint 49">
       <r>   -0.0760    1.0000 </r>
       <r>    0.3483    1.0000 </r>
       <r>    1.8042    1.0000 </r>
       <r>    1.8459    1.0000 </r>
       <r>    1.9409    1.0000 </r>
       <r>    2.1432    1.0000 </r>
       <r>    2.1564    1.0000 </r>
       <r>    2.1569    1.0000 </r>
       <r>    2.7951    1.0000 </r>
       <r>    2.8899    1.0000 </r>
       <r>    3.4422    1.0000 </r>
       <r>    3.5114    1.0000 </r>
       <r>    4.2617    1.0000 </r>
       <r>    4.5111    1.0000 </r>
       <r>    4.8326    1.0000 </r>
       <r>    4.8608    1.0000 </r>
       <r>    5.0638    1.0000 </r>
       <r>    5.4399    1.0000 </r>
       <r>    5.8862    0.9996 </r>
       <r>    6.1098    0.9969 </r>
       <r>    6.4737    0.4936 </r>
       <r>    6.4743    0.4899 </r>
       <r>   11.4409    0.0000 </r>
       <r>   11.7248    0.0000 </r>
      </set>
      <set comment="kpoint 50">
       <r>   -1.4783    1.0000 </r>
       <r>    0.9810    1.0000 </r>
       <r>    0.9810    1.0000 </r>
       <r>    1.0002    1.0000 </r>
       <r>    1.4494    1.0000 </r>
       <r>    1.4494    1.0000 </r>
       <r>    1.6231    1.0000 </r>
       <r>    2.8228    1.0000 </r>
       <r>    3.5833    1.0000 </r>
       <r>    3.5984    1.0000 </r>
       <r>    4.0585    1.0000 </r>
       <r>    4.0585    1.0000 </r>
       <r>    4.2627    1.0000 </r>
       <r>    4.7589    1.0000 </r>
       <r>    5.2532    1.0000 </r>
       <r>    5.4144    1.0000 </r>
       <r>    5.5018    1.0000 </r>
       <r>    5.5018    1.0000 </r>
       <r>    6.5048    0.3321 </r>
       <r>    6.5048    0.3321 </r>
       <r>    6.5275    0.2255 </r>
       <r>    8.6520    0.0000 </r>
       <r>    8.6520    0.0000 </r>
       <r>   11.2125    0.0000 </r>
      </set>
      <set comment="kpoint 51">
       <r>   -1.1571    1.0000 </r>
       <r>    1.0204    1.0000 </r>
       <r>    1.1382    1.0000 </r>
       <r>    1.1863    1.0000 </r>
       <r>    1.5859    1.0000 </r>
       <r>    1.6774    1.0000 </r>
       <r>    1.8443    1.0000 </r>
       <r>    2.7234    1.0000 </r>
       <r>    3.5846    1.0000 </r>
       <r>    3.6139    1.0000 </r>
       <r>    3.6918    1.0000 </r>
       <r>    3.7011    1.0000 </r>
       <r>    3.9167    1.0000 </r>
       <r>    4.6939    1.0000 </r>
       <r>    5.2128    1.0000 </r>
       <r>    5.2463    1.0000 </r>
       <r>    5.3518    1.0000 </r>
       <r>    5.4158    1.0000 </r>
       <r>    6.3439    1.0034 </r>
[...]
       <r>    7.0815    0.0002 </r>
       <r>    7.6113    0.0000 </r>
       <r>    7.6113    0.0000 </r>
       <r>    8.0521    0.0000 </r>
      </set>
      <set comment="kpoint 117">
       <r>    0.0753    1.0000 </r>
       <r>    0.3458    1.0000 </r>
       <r>    0.3458    1.0000 </r>
       <r>    0.3458    1.0000 </r>
       <r>    3.0040    1.0000 </r>
       <r>    3.0040    1.0000 </r>
       <r>    3.0040    1.0000 </r>
       <r>    3.2619    1.0000 </r>
       <r>    3.2619    1.0000 </r>
       <r>    3.4013    1.0000 </r>
       <r>    3.4013    1.0000 </r>
       <r>    3.4013    1.0000 </r>
       <r>    4.8678    1.0000 </r>
       <r>    4.8678    1.0000 </r>
       <r>    4.8678    1.0000 </r>
       <r>    5.1088    1.0000 </r>
       <r>    6.2395    1.0409 </r>
       <r>    6.2395    1.0409 </r>
       <r>    6.5194    0.2621 </r>
       <r>    6.5194    0.2621 </r>
       <r>    6.5194    0.2621 </r>
       <r>    7.9861    0.0000 </r>
       <r>    7.9861    0.0000 </r>
       <r>    7.9861    0.0000 </r>
      </set>
      <set comment="kpoint 118">
       <r>    0.1179    1.0000 </r>
       <r>    0.2085    1.0000 </r>
       <r>    0.2945    1.0000 </r>
       <r>    0.2945    1.0000 </r>
       <r>    3.0380    1.0000 </r>
       <r>    3.0380    1.0000 </r>
       <r>    3.1173    1.0000 </r>
       <r>    3.2048    1.0000 </r>
       <r>    3.2604    1.0000 </r>
       <r>    3.3073    1.0000 </r>
       <r>    3.3422    1.0000 </r>
       <r>    3.3422    1.0000 </r>
       <r>    5.1378    1.0000 </r>
       <r>    5.1378    1.0000 </r>
       <r>    5.1481    1.0000 </r>
       <r>    5.3115    1.0000 </r>
       <r>    6.4030    0.8351 </r>
       <r>    6.4796    0.4622 </r>
       <r>    6.4796    0.4622 </r>
       <r>    6.4984    0.3646 </r>
       <r>    6.5133    0.2907 </r>
       <r>    7.1843    0.0000 </r>
       <r>    7.9639    0.0000 </r>
       <r>    7.9639    0.0000 </r>
      </set>
      <set comment="kpoint 119">
       <r>    0.1245    1.0000 </r>
       <r>    0.1835    1.0000 </r>
       <r>    0.1835    1.0000 </r>
       <r>    0.2123    1.0000 </r>
       <r>    3.1020    1.0000 </r>
       <r>    3.1286    1.0000 </r>
       <r>    3.1286    1.0000 </r>
       <r>    3.1918    1.0000 </r>
       <r>    3.2253    1.0000 </r>
       <r>    3.2594    1.0000 </r>
       <r>    3.2594    1.0000 </r>
       <r>    3.2710    1.0000 </r>
       <r>    5.4552    1.0000 </r>
       <r>    5.4828    1.0000 </r>
       <r>    5.4828    1.0000 </r>
       <r>    5.6423    1.0000 </r>
       <r>    6.3629    0.9639 </r>
       <r>    6.4566    0.5831 </r>
       <r>    6.4566    0.5831 </r>
       <r>    6.4593    0.5695 </r>
       <r>    6.7754   -0.0099 </r>
       <r>    7.3058    0.0000 </r>
       <r>    7.3058    0.0000 </r>
       <r>    7.5952    0.0000 </r>
      </set>
      <set comment="kpoint 120">
       <r>    0.0981    1.0000 </r>
       <r>    0.1275    1.0000 </r>
       <r>    0.1275    1.0000 </r>
       <r>    0.1275    1.0000 </r>
       <r>    3.1611    1.0000 </r>
       <r>    3.1611    1.0000 </r>
       <r>    3.1611    1.0000 </r>
       <r>    3.1916    1.0000 </r>
       <r>    3.1916    1.0000 </r>
       <r>    3.2070    1.0000 </r>
       <r>    3.2070    1.0000 </r>
       <r>    3.2070    1.0000 </r>
       <r>    5.9314    0.9990 </r>
       <r>    5.9314    0.9990 </r>
       <r>    5.9314    0.9990 </r>
       <r>    6.2445    1.0430 </r>
       <r>    6.4712    0.5064 </r>
       <r>    6.4712    0.5064 </r>
       <r>    6.5041    0.3357 </r>
       <r>    6.5041    0.3357 </r>
       <r>    6.5041    0.3357 </r>
       <r>    7.0072    0.0012 </r>
       <r>    7.0072    0.0012 </r>
       <r>    7.0072    0.0012 </r>
      </set>
     </set>
    </set>
   </array>
  </eigenvalues>
  <separator name="orbital magnetization" >
   <v name="MAGDIPOLOUT">      0.00000000      0.00000000      0.00000000</v>
  </separator>
  <dos>
   <i name="efermi">      6.47244366 </i>
   <total>
    <array>
     <dimension dim="1">gridpoints</dimension>
     <dimension dim="2">spin</dimension>
     <field>energy</field>
     <field>total</field>
     <field>integrated</field>
     <set>
      <set comment="spin 1">
       <r>    -4.6355     0.0000     0.0000 </r>
       <r>    -4.5706     0.0000     0.0000 </r>
       <r>    -4.5058     0.0000     0.0000 </r>
       <r>    -4.4409     0.0000     0.0000 </r>
       <r>    -4.3760     0.0000     0.0000 </r>
       <r>    -4.3111     0.0000     0.0000 </r>
       <r>    -4.2463     0.0000     0.0000 </r>
       <r>    -4.1814     0.0000     0.0000 </r>
       <r>    -4.1165     0.0000     0.0000 </r>
       <r>    -4.0516     0.0000     0.0000 </r>
       <r>    -3.9868     0.0000     0.0000 </r>
       <r>    -3.9219     0.0000     0.0000 </r>
       <r>    -3.8570     0.0000     0.0000 </r>
       <r>    -3.7922     0.0000     0.0000 </r>
       <r>    -3.7273     0.0000     0.0000 </r>
       <r>    -3.6624     0.0000     0.0000 </r>
       <r>    -3.5975     0.0000     0.0000 </r>
       <r>    -3.5327     0.0000     0.0000 </r>
       <r>    -3.4678     0.0000     0.0000 </r>
       <r>    -3.4029     0.0000     0.0000 </r>
       <r>    -3.3380     0.0000     0.0000 </r>
       <r>    -3.2732     0.0000     0.0000 </r>
       <r>    -3.2083     0.0000     0.0000 </r>
       <r>    -3.1434     0.0001     0.0000 </r>
       <r>    -3.0785     0.0003     0.0000 </r>
       <r>    -3.0137     0.0005     0.0001 </r>
       <r>    -2.9488     0.0000     0.0001 </r>
       <r>    -2.8839    -0.0017    -0.0001 </r>
       <r>    -2.8190    -0.0040    -0.0003 </r>
       <r>    -2.7542    -0.0023    -0.0005 </r>
       <r>    -2.6893     0.0106     0.0002 </r>
       <r>    -2.6244     0.0378     0.0027 </r>
       <r>    -2.5595     0.0730     0.0074 </r>
       <r>    -2.4947     0.1061     0.0143 </r>
       <r>    -2.4298     0.1344     0.0230 </r>
       <r>    -2.3649     0.1616     0.0335 </r>
       <r>    -2.3000     0.1838     0.0454 </r>
       <r>    -2.2352     0.1927     0.0579 </r>
       <r>    -2.1703     0.1967     0.0707 </r>
       <r>    -2.1054     0.2184     0.0848 </r>
       <r>    -2.0406     0.2573     0.1015 </r>
       <r>    -1.9757     0.2810     0.1198 </r>
       <r>    -1.9108     0.2739     0.1375 </r>
       <r>    -1.8459     0.2641     0.1547 </r>
       <r>    -1.7811     0.2808     0.1729 </r>
       <r>    -1.7162     0.3161     0.1934 </r>
       <r>    -1.6513     0.3494     0.2161 </r>
       <r>    -1.5864     0.3752     0.2404 </r>
       <r>    -1.5216     0.3885     0.2656 </r>
       <r>    -1.4567     0.3762     0.2900 </r>
       <r>    -1.3918     0.3484     0.3126 </r>
       <r>    -1.3269     0.3516     0.3354 </r>
       <r>    -1.2621     0.4159     0.3624 </r>
       <r>    -1.1972     0.5031     0.3950 </r>
       <r>    -1.1323     0.5414     0.4302 </r>
       <r>    -1.0674     0.5066     0.4630 </r>
       <r>    -1.0026     0.4452     0.4919 </r>
       <r>    -0.9377     0.4310     0.5199 </r>
       <r>    -0.8728     0.4981     0.5522 </r>
       <r>    -0.8079     0.5977     0.5909 </r>
       <r>    -0.7431     0.6455     0.6328 </r>
       <r>    -0.6782     0.6302     0.6737 </r>
       <r>    -0.6133     0.6220     0.7141 </r>
       <r>    -0.5485     0.6631     0.7571 </r>
       <r>    -0.4836     0.7131     0.8033 </r>
       <r>    -0.4187     0.7248     0.8504 </r>
       <r>    -0.3538     0.7166     0.8968 </r>
       <r>    -0.2890     0.7547     0.9458 </r>
       <r>    -0.2241     0.8757     1.0026 </r>
       <r>    -0.1592     1.0175     1.0686 </r>
       <r>    -0.0943     1.0717     1.1382 </r>
       <r>    -0.0295     1.0706     1.2076 </r>
       <r>     0.0354     1.2231     1.2870 </r>
       <r>     0.1003     1.6426     1.3935 </r>
       <r>     0.1652     2.1351     1.5320 </r>
       <r>     0.2300     2.4025     1.6879 </r>
       <r>     0.2949     2.3967     1.8434 </r>
       <r>     0.3598     2.3682     1.9970 </r>
       <r>     0.4247     2.5802     2.1644 </r>
       <r>     0.4895     3.0365     2.3614 </r>
       <r>     0.5544     3.5183     2.5896 </r>
       <r>     0.6193     3.8576     2.8399 </r>
       <r>     0.6842     4.1081     3.1064 </r>
       <r>     0.7490     4.4227     3.3933 </r>
       <r>     0.8139     4.8337     3.7069 </r>
       <r>     0.8788     5.2648     4.0484 </r>
       <r>     0.9436     5.6944     4.4179 </r>
       <r>     1.0085     6.1031     4.8138 </r>
       <r>     1.0734     6.3468     5.2255 </r>
       <r>     1.1383     6.3382     5.6367 </r>
       <r>     1.2031     6.2246     6.0405 </r>
       <r>     1.2680     6.1484     6.4394 </r>
       <r>     1.3329     6.0252     6.8303 </r>
       <r>     1.3978     5.7882     7.2058 </r>
       <r>     1.4626     5.6106     7.5698 </r>
       <r>     1.5275     5.6263     7.9348 </r>
       <r>     1.5924     5.6680     8.3025 </r>
       <r>     1.6573     5.5312     8.6613 </r>
       <r>     1.7221     5.2460     9.0016 </r>
       <r>     1.7870     4.8868     9.3187 </r>
       <r>     1.8519     4.4333     9.6063 </r>
       <r>     1.9168     4.0198     9.8670 </r>
       <r>     1.9816     3.9749    10.1249 </r>
       <r>     2.0465     4.3986    10.4103 </r>
       <r>     2.1114     4.9959    10.7344 </r>
       <r>     2.1763     5.4584    11.0885 </r>
       <r>     2.2411     5.7433    11.4611 </r>
       <r>     2.3060     5.9452    11.8468 </r>
       <r>     2.3709     6.1282    12.2443 </r>
       <r>     2.4357     6.2843    12.6520 </r>
       <r>     2.5006     6.3517    13.0641 </r>
       <r>     2.5655     6.3167    13.4739 </r>
       <r>     2.6304     6.3025    13.8827 </r>
       <r>     2.6952     6.4693    14.3024 </r>
       <r>     2.7601     6.8039    14.7438 </r>
       <r>     2.8250     7.0753    15.2028 </r>
       <r>     2.8899     7.0846    15.6624 </r>
       <r>     2.9547     6.9218    16.1115 </r>
       <r>     3.0196     6.8632    16.5567 </r>
       <r>     3.0845     7.0910    17.0167 </r>
       <r>     3.1494     7.6088    17.5103 </r>
       <r>     3.2142     8.2453    18.0452 </r>
       <r>     3.2791     8.7052    18.6100 </r>
       <r>     3.3440     8.9048    19.1877 </r>
       <r>     3.4089     9.2031    19.7847 </r>
       <r>     3.4737     9.9331    20.4291 </r>
       <r>     3.5386    10.7831    21.1287 </r>
       <r>     3.6035    11.0128    21.8431 </r>
       <r>     3.6684    10.2553    22.5084 </r>
       <r>     3.7332     8.8415    23.0820 </r>
       <r>     3.7981     7.3965    23.5618 </r>
       <r>     3.8630     6.3425    23.9733 </r>
       <r>     3.9278     5.7431    24.3459 </r>
       <r>     3.9927     5.4491    24.6994 </r>
       <r>     4.0576     5.3341    25.0454 </r>
       <r>     4.1225     5.3517    25.3926 </r>
       <r>     4.1873     5.3959    25.7426 </r>
       <r>     4.2522     5.3070    26.0869 </r>
       <r>     4.3171     5.1201    26.4191 </r>
       <r>     4.3820     5.0942    26.7496 </r>
       <r>     4.4468     5.3395    27.0960 </r>
       <r>     4.5117     5.6620    27.4633 </r>
       <r>     4.5766     5.9378    27.8485 </r>
       <r>     4.6415     6.3204    28.2585 </r>
       <r>     4.7063     6.8709    28.7043 </r>
       <r>     4.7712     7.3091    29.1784 </r>
       <r>     4.8361     7.3605    29.6559 </r>
       <r>     4.9010     7.1199    30.1178 </r>
       <r>     4.9658     6.8650    30.5632 </r>
       <r>     5.0307     6.6373    30.9938 </r>
       <r>     5.0956     6.2463    31.3990 </r>
       <r>     5.1605     5.7005    31.7688 </r>
       <r>     5.2253     5.3517    32.1160 </r>
       <r>     5.2902     5.4366    32.4687 </r>
       <r>     5.3551     5.6927    32.8380 </r>
       <r>     5.4199     5.6655    33.2055 </r>
       <r>     5.4848     5.2998    33.5494 </r>
       <r>     5.5497     4.9878    33.8729 </r>
       <r>     5.6146     5.0131    34.1982 </r>
       <r>     5.6794     5.2185    34.5367 </r>
       <r>     5.7443     5.3437    34.8834 </r>
       <r>     5.8092     5.3804    35.2324 </r>
       <r>     5.8741     5.4150    35.5837 </r>
       <r>     5.9389     5.4326    35.9361 </r>
       <r>     6.0038     5.4552    36.2900 </r>
       <r>     6.0687     5.6416    36.6560 </r>
       <r>     6.1336     6.1363    37.0541 </r>
       <r>     6.1984     6.9450    37.5047 </r>
       <r>     6.2633     7.9466    38.0202 </r>
       <r>     6.3282     8.9313    38.5996 </r>
       <r>     6.3931     9.6467    39.2254 </r>
       <r>     6.4579     9.8054    39.8615 </r>
       <r>     6.5228     9.1399    40.4545 </r>
       <r>     6.5877     7.7239    40.9556 </r>
       <r>     6.6526     6.1768    41.3563 </r>
       <r>     6.7174     5.1332    41.6893 </r>
       <r>     6.7823     4.5353    41.9835 </r>
       <r>     6.8472     3.8115    42.2308 </r>
       <r>     6.9120     2.6729    42.4042 </r>
       <r>     6.9769     1.4266    42.4967 </r>
       <r>     7.0418     0.5886    42.5349 </r>
       <r>     7.1067     0.4513    42.5642 </r>
       <r>     7.1715     0.9579    42.6263 </r>
       <r>     7.2364     1.7080    42.7371 </r>
       <r>     7.3013     2.1093    42.8740 </r>
       <r>     7.3662     1.8209    42.9921 </r>
       <r>     7.4310     1.0956    43.0632 </r>
       <r>     7.4959     0.5260    43.0973 </r>
       <r>     7.5608     0.4853    43.1288 </r>
       <r>     7.6257     0.8841    43.1861 </r>
       <r>     7.6905     1.3523    43.2739 </r>
       <r>     7.7554     1.5610    43.3751 </r>
       <r>     7.8203     1.4430    43.4688 </r>
       <r>     7.8852     1.1895    43.5459 </r>
       <r>     7.9500     1.0539    43.6143 </r>
       <r>     8.0149     1.1399    43.6882 </r>
       <r>     8.0798     1.3329    43.7747 </r>
       <r>     8.1447     1.4186    43.8667 </r>
       <r>     8.2095     1.2913    43.9505 </r>
       <r>     8.2744     1.0388    44.0179 </r>
       <r>     8.3393     0.8346    44.0721 </r>
       <r>     8.4041     0.8124    44.1248 </r>
       <r>     8.4690     1.0231    44.1911 </r>
       <r>     8.5339     1.3725    44.2802 </r>
       <r>     8.5988     1.6010    44.3840 </r>
       <r>     8.6636     1.4925    44.4809 </r>
       <r>     8.7285     1.1472    44.5553 </r>
       <r>     8.7934     0.8992    44.6136 </r>
       <r>     8.8583     0.9340    44.6742 </r>
       <r>     8.9231     1.1275    44.7474 </r>
       <r>     8.9880     1.2729    44.8299 </r>
       <r>     9.0529     1.3000    44.9143 </r>
       <r>     9.1178     1.2531    44.9956 </r>
       <r>     9.1826     1.1952    45.0731 </r>
       <r>     9.2475     1.1555    45.1481 </r>
       <r>     9.3124     1.1047    45.2197 </r>
       <r>     9.3773     1.0138    45.2855 </r>
       <r>     9.4421     0.9458    45.3469 </r>
       <r>     9.5070     0.9861    45.4108 </r>
       <r>     9.5719     1.0982    45.4821 </r>
       <r>     9.6368     1.1763    45.5584 </r>
       <r>     9.7016     1.2066    45.6367 </r>
       <r>     9.7665     1.2310    45.7165 </r>
       <r>     9.8314     1.2097    45.7950 </r>
       <r>     9.8962     1.0837    45.8653 </r>
       <r>     9.9611     0.9294    45.9256 </r>
       <r>    10.0260     0.8982    45.9839 </r>
       <r>    10.0909     1.0269    46.0505 </r>
       <r>    10.1557     1.1942    46.1280 </r>
       <r>    10.2206     1.2396    46.2084 </r>
       <r>    10.2855     1.0998    46.2797 </r>
       <r>    10.3504     0.8699    46.3362 </r>
       <r>    10.4152     0.7223    46.3830 </r>
       <r>    10.4801     0.7465    46.4314 </r>
       <r>    10.5450     0.8921    46.4893 </r>
       <r>    10.6099     1.0430    46.5570 </r>
       <r>    10.6747     1.1084    46.6289 </r>
       <r>    10.7396     1.0919    46.6997 </r>
       <r>    10.8045     1.0847    46.7701 </r>
       <r>    10.8694     1.1258    46.8431 </r>
       <r>    10.9342     1.1054    46.9148 </r>
       <r>    10.9991     0.9129    46.9741 </r>
       <r>    11.0640     0.6373    47.0154 </r>
       <r>    11.1289     0.5003    47.0479 </r>
       <r>    11.1937     0.6158    47.0878 </r>
       <r>    11.2586     0.8873    47.1454 </r>
       <r>    11.3235     1.1084    47.2173 </r>
       <r>    11.3883     1.1312    47.2907 </r>
       <r>    11.4532     0.9814    47.3543 </r>
       <r>    11.5181     0.8306    47.4082 </r>
       <r>    11.5830     0.8173    47.4612 </r>
       <r>    11.6478     0.8910    47.5190 </r>
       <r>    11.7127     0.8894    47.5767 </r>
       <r>    11.7776     0.7630    47.6262 </r>
       <r>    11.8425     0.6222    47.6666 </r>
       <r>    11.9073     0.5585    47.7028 </r>
       <r>    11.9722     0.5462    47.7383 </r>
       <r>    12.0371     0.5402    47.7733 </r>
       <r>    12.1020     0.5380    47.8082 </r>
       <r>    12.1668     0.5211    47.8420 </r>
       <r>    12.2317     0.4553    47.8715 </r>
       <r>    12.2966     0.3599    47.8949 </r>
       <r>    12.3615     0.2838    47.9133 </r>
       <r>    12.4263     0.2321    47.9284 </r>
       <r>    12.4912     0.1795    47.9400 </r>
       <r>    12.5561     0.1271    47.9483 </r>
       <r>    12.6210     0.1045    47.9550 </r>
       <r>    12.6858     0.1275    47.9633 </r>
       <r>    12.7507     0.1699    47.9743 </r>
       <r>    12.8156     0.1836    47.9862 </r>
       <r>    12.8804     0.1443    47.9956 </r>
       <r>    12.9453     0.0738    48.0004 </r>
       <r>    13.0102     0.0148    48.0013 </r>
       <r>    13.0751    -0.0102    48.0007 </r>
       <r>    13.1399    -0.0098    48.0000 </r>
       <r>    13.2048    -0.0030    47.9999 </r>
       <r>    13.2697     0.0006    47.9999 </r>
       <r>    13.3346     0.0010    48.0000 </r>
       <r>    13.3994     0.0005    48.0000 </r>
       <r>    13.4643     0.0002    48.0000 </r>
       <r>    13.5292     0.0000    48.0000 </r>
       <r>    13.5941     0.0000    48.0000 </r>
       <r>    13.6589     0.0000    48.0000 </r>
       <r>    13.7238     0.0000    48.0000 </r>
       <r>    13.7887     0.0000    48.0000 </r>
       <r>    13.8536     0.0000    48.0000 </r>
       <r>    13.9184     0.0000    48.0000 </r>
       <r>    13.9833     0.0000    48.0000 </r>
       <r>    14.0482     0.0000    48.0000 </r>
       <r>    14.1131     0.0000    48.0000 </r>
       <r>    14.1779     0.0000    48.0000 </r>
       <r>    14.2428     0.0000    48.0000 </r>
       <r>    14.3077     0.0000    48.0000 </r>
       <r>    14.3725     0.0000    48.0000 </r>
       <r>    14.4374     0.0000    48.0000 </r>
       <r>    14.5023     0.0000    48.0000 </r>
       <r>    14.5672     0.0000    48.0000 </r>
       <r>    14.6320     0.0000    48.0000 </r>
       <r>    14.6969     0.0000    48.0000 </r>
       <r>    14.7618     0.0000    48.0000 </r>
       <r>    14.8267     0.0000    48.0000 </r>
      </set>
     </set>
    </array>
   </total>
  </dos>
 </calculation>
 <structure name="finalpos" >
  <crystal>
   <varray name="basis" >
    <v>       4.05000000       0.00000000       0.00000000 </v>
    <v>       0.00000000       4.05000000       0.00000000 </v>
    <v>       0.00000000       0.00000000       4.05000000 </v>
   </varray>
   <i name="volume">     66.43012500 </i>
   <varray name="rec_basis" >
    <v>       0.24691358       0.00000000       0.00000000 </v>
    <v>       0.00000000       0.24691358       0.00000000 </v>
    <v>       0.00000000       0.00000000       0.24691358 </v>
   </varray>
  </crystal>
  <varray name="positions" >
   <v>       0.00000000       0.00000000       0.00000000 </v>
   <v>       0.00000000       0.50000000       0.50000000 </v>
   <v>       0.50000000       0.00000000       0.50000000 </v>
   <v>       0.50000000       0.50000000       0.00000000 </v>
  </varray>
 </structure>
</modeling>
