This job started on
Tue Jan 22 12:57:32 CET 2019
 running on   16 total cores
 distrk:  each k-point on   16 cores,    1 groups
 distr:  one band on    8 cores,    2 groups
 using from now: INCAR     
 vasp.5.4.4.18Apr17-6-g9f103f2a35 (build Apr 17 2018 18:25:23) complex          
  
 POSCAR found :  1 types and       4 ions

 ----------------------------------------------------------------------------- 
|                                                                             |
|  ADVICE TO THIS USER RUNNING 'VASP/VAMP'   (HEAR YOUR MASTER'S VOICE ...):  |
|                                                                             |
|      You enforced a specific xc-type in the INCAR file,                     |
|      a different type was found on the POTCAR file                          |
|          I HOPE YOU KNOW, WHAT YOU ARE  DOING                               |
|                                                                             |
 ----------------------------------------------------------------------------- 

 LDA part: xc-table for Ceperly-Alder, standard interpolation
 POSCAR found :  1 types and       4 ions
 POSCAR, INCAR and KPOINTS ok, starting setup
 FFT: planning ...
 WAVECAR not read
 entering main loop
       N       E                     dE             d eps       ncg     rms          rms(c)
DAV:   1     0.441396572810E+03    0.44140E+03   -0.17247E+04  5776   0.149E+03
DAV:   2     0.385207084871E+01   -0.43754E+03   -0.42492E+03  5800   0.518E+02
DAV:   3    -0.251903101310E+02   -0.29042E+02   -0.28129E+02  8072   0.120E+02
DAV:   4    -0.260753441497E+02   -0.88503E+00   -0.87639E+00  6136   0.278E+01
DAV:   5    -0.261002828669E+02   -0.24939E-01   -0.24924E-01  7048   0.307E+00    0.770E+00
DAV:   6    -0.245628060358E+02    0.15375E+01   -0.38282E+00  7104   0.217E+01    0.215E+00
DAV:   7    -0.244341027069E+02    0.12870E+00   -0.42829E-01  8768   0.649E+00    0.561E-01
DAV:   8    -0.244196786820E+02    0.14424E-01   -0.17519E-02  5952   0.167E+00    0.995E-02
DAV:   9    -0.244193705035E+02    0.30818E-03   -0.17080E-03  7704   0.450E-01    0.231E-02
DAV:  10    -0.244193885462E+02   -0.18043E-04   -0.43779E-05  6512   0.377E-02    0.381E-03
DAV:  11    -0.244193910359E+02   -0.24898E-05   -0.13518E-06  4480   0.124E-02    0.587E-04
DAV:  12    -0.244193908150E+02    0.22094E-06   -0.24136E-07  3184   0.391E-03
   1 F= -.24419391E+02 E0= -.24417951E+02  d E =-.244194E+02
 curvature:   0.00 expect dE= 0.000E+00 dE for cont linesearch  0.000E+00
 trial: gam= 0.00000 g(F)=  0.200E-59 g(S)=  0.000E+00 ort = 0.000E+00 (trialstep = 0.100E+01)
 search vector abs. value=  0.100E-09
 reached required accuracy - stopping structural energy minimisation
 writing wavefunctions
This job finished on
Tue Jan 22 12:57:52 CET 2019
