<?xml version="1.0" encoding="ISO-8859-1"?>
<modeling>
 <generator>
  <i name="program" type="string">vasp </i>
  <i name="version" type="string">5.4.4.18Apr17-6-g9f103f2a35  </i>
  <i name="subversion" type="string">(build Apr 17 2018 18:25:23) complex            parallel </i>
  <i name="platform" type="string">LinuxIFC </i>
  <i name="date" type="string">2019 01 22 </i>
  <i name="time" type="string">12:57:33 </i>
 </generator>
 <incar>
  <i type="string" name="SYSTEM"> Pt bulk calculation</i>
  <i type="int" name="ISTART">     0</i>
  <i type="string" name="PREC">normal</i>
  <i type="string" name="ALGO"> NORMAL</i>
  <i type="int" name="ICHARG">     2</i>
  <i type="int" name="INIWAV">     1</i>
  <i type="int" name="NELMIN">    10</i>
  <i type="int" name="IBRION">     2</i>
  <i name="EDIFF">      0.00000100</i>
  <i name="EDIFFG">     -0.02000000</i>
  <i type="int" name="NSW">    10</i>
  <i name="ENCUT">    450.00000000</i>
  <i name="POTIM">      0.20000000</i>
  <i type="int" name="ISMEAR">     2</i>
  <i name="SIGMA">      0.20000000</i>
  <v type="int" name="KPOINT_BSE">    -1     0     0     0</v>
  <i type="string" name="GGA"> 91</i>
 </incar>
 <structure name="primitive_cell" >
  <crystal>
   <varray name="basis" >
    <v>       1.99000000       1.99000000       0.00000000 </v>
    <v>       1.99000000       0.00000000      -1.99000000 </v>
    <v>       0.00000000       1.99000000      -1.99000000 </v>
   </varray>
   <i name="volume">     15.76119800 </i>
   <varray name="rec_basis" >
    <v>       0.25125628       0.25125628       0.25125628 </v>
    <v>       0.25125628      -0.25125628      -0.25125628 </v>
    <v>      -0.25125628       0.25125628      -0.25125628 </v>
   </varray>
  </crystal>
  <varray name="positions" >
   <v>       0.00000000       0.00000000       0.00000000 </v>
  </varray>
 </structure>
 <varray name="primitive_index" >
  <v type="int" >        1 </v>
 </varray>
 <kpoints>
  <generation param="Monkhorst-Pack">
   <v type="int" name="divisions">      16       16       16 </v>
   <v name="usershift">      0.00000000       0.00000000       0.00000000 </v>
   <v name="genvec1">      0.06250000       0.00000000       0.00000000 </v>
   <v name="genvec2">      0.00000000       0.06250000       0.00000000 </v>
   <v name="genvec3">      0.00000000       0.00000000       0.06250000 </v>
   <v name="shift">      0.50000000       0.50000000       0.50000000 </v>
  </generation>
  <varray name="kpointlist" >
   <v>       0.03125000       0.03125000       0.03125000 </v>
   <v>       0.09375000       0.03125000       0.03125000 </v>
   <v>       0.15625000       0.03125000       0.03125000 </v>
   <v>       0.21875000       0.03125000       0.03125000 </v>
   <v>       0.28125000       0.03125000       0.03125000 </v>
   <v>       0.34375000       0.03125000       0.03125000 </v>
   <v>       0.40625000       0.03125000       0.03125000 </v>
   <v>       0.46875000       0.03125000       0.03125000 </v>
   <v>       0.09375000       0.09375000       0.03125000 </v>
   <v>       0.15625000       0.09375000       0.03125000 </v>
   <v>       0.21875000       0.09375000       0.03125000 </v>
   <v>       0.28125000       0.09375000       0.03125000 </v>
   <v>       0.34375000       0.09375000       0.03125000 </v>
   <v>       0.40625000       0.09375000       0.03125000 </v>
   <v>       0.46875000       0.09375000       0.03125000 </v>
   <v>       0.15625000       0.15625000       0.03125000 </v>
   <v>       0.21875000       0.15625000       0.03125000 </v>
   <v>       0.28125000       0.15625000       0.03125000 </v>
   <v>       0.34375000       0.15625000       0.03125000 </v>
   <v>       0.40625000       0.15625000       0.03125000 </v>
   <v>       0.46875000       0.15625000       0.03125000 </v>
   <v>       0.21875000       0.21875000       0.03125000 </v>
   <v>       0.28125000       0.21875000       0.03125000 </v>
   <v>       0.34375000       0.21875000       0.03125000 </v>
   <v>       0.40625000       0.21875000       0.03125000 </v>
   <v>       0.46875000       0.21875000       0.03125000 </v>
   <v>       0.28125000       0.28125000       0.03125000 </v>
   <v>       0.34375000       0.28125000       0.03125000 </v>
   <v>       0.40625000       0.28125000       0.03125000 </v>
   <v>       0.46875000       0.28125000       0.03125000 </v>
   <v>       0.34375000       0.34375000       0.03125000 </v>
   <v>       0.40625000       0.34375000       0.03125000 </v>
   <v>       0.46875000       0.34375000       0.03125000 </v>
   <v>       0.40625000       0.40625000       0.03125000 </v>
   <v>       0.46875000       0.40625000       0.03125000 </v>
   <v>       0.46875000       0.46875000       0.03125000 </v>
   <v>       0.09375000       0.09375000       0.09375000 </v>
   <v>       0.15625000       0.09375000       0.09375000 </v>
   <v>       0.21875000       0.09375000       0.09375000 </v>
   <v>       0.28125000       0.09375000       0.09375000 </v>
   <v>       0.34375000       0.09375000       0.09375000 </v>
   <v>       0.40625000       0.09375000       0.09375000 </v>
   <v>       0.46875000       0.09375000       0.09375000 </v>
   <v>       0.15625000       0.15625000       0.09375000 </v>
   <v>       0.21875000       0.15625000       0.09375000 </v>
   <v>       0.28125000       0.15625000       0.09375000 </v>
   <v>       0.34375000       0.15625000       0.09375000 </v>
   <v>       0.40625000       0.15625000       0.09375000 </v>
   <v>       0.46875000       0.15625000       0.09375000 </v>
   <v>       0.21875000       0.21875000       0.09375000 </v>
   <v>       0.28125000       0.21875000       0.09375000 </v>
   <v>       0.34375000       0.21875000       0.09375000 </v>
   <v>       0.40625000       0.21875000       0.09375000 </v>
   <v>       0.46875000       0.21875000       0.09375000 </v>
   <v>       0.28125000       0.28125000       0.09375000 </v>
   <v>       0.34375000       0.28125000       0.09375000 </v>
   <v>       0.40625000       0.28125000       0.09375000 </v>
   <v>       0.46875000       0.28125000       0.09375000 </v>
   <v>       0.34375000       0.34375000       0.09375000 </v>
   <v>       0.40625000       0.34375000       0.09375000 </v>
   <v>       0.46875000       0.34375000       0.09375000 </v>
   <v>       0.40625000       0.40625000       0.09375000 </v>
   <v>       0.46875000       0.40625000       0.09375000 </v>
   <v>       0.46875000       0.46875000       0.09375000 </v>
   <v>       0.15625000       0.15625000       0.15625000 </v>
   <v>       0.21875000       0.15625000       0.15625000 </v>
   <v>       0.28125000       0.15625000       0.15625000 </v>
   <v>       0.34375000       0.15625000       0.15625000 </v>
   <v>       0.40625000       0.15625000       0.15625000 </v>
   <v>       0.46875000       0.15625000       0.15625000 </v>
   <v>       0.21875000       0.21875000       0.15625000 </v>
   <v>       0.28125000       0.21875000       0.15625000 </v>
   <v>       0.34375000       0.21875000       0.15625000 </v>
   <v>       0.40625000       0.21875000       0.15625000 </v>
   <v>       0.46875000       0.21875000       0.15625000 </v>
   <v>       0.28125000       0.28125000       0.15625000 </v>
   <v>       0.34375000       0.28125000       0.15625000 </v>
   <v>       0.40625000       0.28125000       0.15625000 </v>
   <v>       0.46875000       0.28125000       0.15625000 </v>
   <v>       0.34375000       0.34375000       0.15625000 </v>
   <v>       0.40625000       0.34375000       0.15625000 </v>
   <v>       0.46875000       0.34375000       0.15625000 </v>
   <v>       0.40625000       0.40625000       0.15625000 </v>
   <v>       0.46875000       0.40625000       0.15625000 </v>
   <v>       0.46875000       0.46875000       0.15625000 </v>
   <v>       0.21875000       0.21875000       0.21875000 </v>
   <v>       0.28125000       0.21875000       0.21875000 </v>
   <v>       0.34375000       0.21875000       0.21875000 </v>
   <v>       0.40625000       0.21875000       0.21875000 </v>
   <v>       0.46875000       0.21875000       0.21875000 </v>
   <v>       0.28125000       0.28125000       0.21875000 </v>
   <v>       0.34375000       0.28125000       0.21875000 </v>
   <v>       0.40625000       0.28125000       0.21875000 </v>
   <v>       0.46875000       0.28125000       0.21875000 </v>
   <v>       0.34375000       0.34375000       0.21875000 </v>
   <v>       0.40625000       0.34375000       0.21875000 </v>
   <v>       0.46875000       0.34375000       0.21875000 </v>
   <v>       0.40625000       0.40625000       0.21875000 </v>
   <v>       0.46875000       0.40625000       0.21875000 </v>
   <v>       0.46875000       0.46875000       0.21875000 </v>
   <v>       0.28125000       0.28125000       0.28125000 </v>
   <v>       0.34375000       0.28125000       0.28125000 </v>
   <v>       0.40625000       0.28125000       0.28125000 </v>
   <v>       0.46875000       0.28125000       0.28125000 </v>
   <v>       0.34375000       0.34375000       0.28125000 </v>
   <v>       0.40625000       0.34375000       0.28125000 </v>
   <v>       0.46875000       0.34375000       0.28125000 </v>
   <v>       0.40625000       0.40625000       0.28125000 </v>
   <v>       0.46875000       0.40625000       0.28125000 </v>
   <v>       0.46875000       0.46875000       0.28125000 </v>
   <v>       0.34375000       0.34375000       0.34375000 </v>
   <v>       0.40625000       0.34375000       0.34375000 </v>
   <v>       0.46875000       0.34375000       0.34375000 </v>
   <v>       0.40625000       0.40625000       0.34375000 </v>
   <v>       0.46875000       0.40625000       0.34375000 </v>
   <v>       0.46875000       0.46875000       0.34375000 </v>
   <v>       0.40625000       0.40625000       0.40625000 </v>
   <v>       0.46875000       0.40625000       0.40625000 </v>
   <v>       0.46875000       0.46875000       0.40625000 </v>
   <v>       0.46875000       0.46875000       0.46875000 </v>
  </varray>
  <varray name="weights" >
   <v>       0.00195312 </v>
   <v>       0.00585938 </v>
   <v>       0.00585938 </v>
   <v>       0.00585938 </v>
   <v>       0.00585938 </v>
   <v>       0.00585938 </v>
   <v>       0.00585938 </v>
   <v>       0.00585938 </v>
   <v>       0.00585938 </v>
   <v>       0.01171875 </v>
   <v>       0.01171875 </v>
   <v>       0.01171875 </v>
   <v>       0.01171875 </v>
   <v>       0.01171875 </v>
   <v>       0.01171875 </v>
   <v>       0.00585938 </v>
   <v>       0.01171875 </v>
   <v>       0.01171875 </v>
   <v>       0.01171875 </v>
   <v>       0.01171875 </v>
   <v>       0.01171875 </v>
   <v>       0.00585938 </v>
   <v>       0.01171875 </v>
   <v>       0.01171875 </v>
   <v>       0.01171875 </v>
   <v>       0.01171875 </v>
   <v>       0.00585938 </v>
   <v>       0.01171875 </v>
   <v>       0.01171875 </v>
   <v>       0.01171875 </v>
   <v>       0.00585938 </v>
   <v>       0.01171875 </v>
   <v>       0.01171875 </v>
   <v>       0.00585938 </v>
   <v>       0.01171875 </v>
   <v>       0.00585938 </v>
   <v>       0.00195312 </v>
   <v>       0.00585938 </v>
   <v>       0.00585938 </v>
   <v>       0.00585938 </v>
   <v>       0.00585938 </v>
   <v>       0.00585938 </v>
   <v>       0.00585938 </v>
   <v>       0.00585938 </v>
   <v>       0.01171875 </v>
   <v>       0.01171875 </v>
   <v>       0.01171875 </v>
   <v>       0.01171875 </v>
   <v>       0.01171875 </v>
   <v>       0.00585938 </v>
   <v>       0.01171875 </v>
   <v>       0.01171875 </v>
   <v>       0.01171875 </v>
   <v>       0.01171875 </v>
   <v>       0.00585938 </v>
   <v>       0.01171875 </v>
   <v>       0.01171875 </v>
   <v>       0.01171875 </v>
   <v>       0.00585938 </v>
   <v>       0.01171875 </v>
   <v>       0.01171875 </v>
   <v>       0.00585938 </v>
   <v>       0.01171875 </v>
   <v>       0.00585938 </v>
   <v>       0.00195312 </v>
   <v>       0.00585938 </v>
   <v>       0.00585938 </v>
   <v>       0.00585938 </v>
   <v>       0.00585938 </v>
   <v>       0.00585938 </v>
   <v>       0.00585938 </v>
   <v>       0.01171875 </v>
   <v>       0.01171875 </v>
   <v>       0.01171875 </v>
   <v>       0.01171875 </v>
   <v>       0.00585938 </v>
   <v>       0.01171875 </v>
   <v>       0.01171875 </v>
   <v>       0.01171875 </v>
   <v>       0.00585938 </v>
   <v>       0.01171875 </v>
   <v>       0.01171875 </v>
   <v>       0.00585938 </v>
   <v>       0.01171875 </v>
   <v>       0.00585938 </v>
   <v>       0.00195312 </v>
   <v>       0.00585938 </v>
   <v>       0.00585938 </v>
   <v>       0.00585938 </v>
   <v>       0.00585938 </v>
   <v>       0.00585938 </v>
   <v>       0.01171875 </v>
   <v>       0.01171875 </v>
   <v>       0.01171875 </v>
   <v>       0.00585938 </v>
   <v>       0.01171875 </v>
   <v>       0.01171875 </v>
   <v>       0.00585938 </v>
   <v>       0.01171875 </v>
   <v>       0.00585938 </v>
   <v>       0.00195312 </v>
   <v>       0.00585938 </v>
   <v>       0.00585938 </v>
   <v>       0.00585938 </v>
   <v>       0.00585938 </v>
   <v>       0.01171875 </v>
   <v>       0.01171875 </v>
   <v>       0.00585938 </v>
   <v>       0.01171875 </v>
   <v>       0.00585938 </v>
   <v>       0.00195312 </v>
   <v>       0.00585938 </v>
   <v>       0.00585938 </v>
   <v>       0.00585938 </v>
   <v>       0.01171875 </v>
   <v>       0.00585938 </v>
   <v>       0.00195312 </v>
   <v>       0.00585938 </v>
   <v>       0.00585938 </v>
   <v>       0.00195312 </v>
  </varray>
 </kpoints>
 <parameters>
  <separator name="general" >
   <i type="string" name="SYSTEM">Pt bulk calculation</i>
   <i type="logical" name="LCOMPAT"> F  </i>
  </separator>
  <separator name="electronic" >
   <i type="string" name="PREC">normal</i>
   <i name="ENMAX">    450.00000000</i>
   <i name="ENAUG">    358.96600000</i>
   <i name="EDIFF">      0.00000100</i>
   <i type="int" name="IALGO">    38</i>
   <i type="int" name="IWAVPR">    11</i>
   <i type="int" name="NBANDS">    24</i>
   <i name="NELECT">     40.00000000</i>
   <i type="int" name="TURBO">     0</i>
   <i type="int" name="IRESTART">     0</i>
   <i type="int" name="NREBOOT">     0</i>
   <i type="int" name="NMIN">     0</i>
   <i name="EREF">      0.00000000</i>
   <separator name="electronic smearing" >
    <i type="int" name="ISMEAR">     2</i>
    <i name="SIGMA">      0.20000000</i>
    <i name="KSPACING">      0.50000000</i>
    <i type="logical" name="KGAMMA"> T  </i>
   </separator>
   <separator name="electronic projectors" >
    <i type="logical" name="LREAL"> F  </i>
    <v name="ROPT">      0.00000000</v>
    <i type="int" name="LMAXPAW">  -100</i>
    <i type="int" name="LMAXMIX">     2</i>
    <i type="logical" name="NLSPLINE"> F  </i>
   </separator>
   <separator name="electronic startup" >
    <i type="int" name="ISTART">     0</i>
    <i type="int" name="ICHARG">     2</i>
    <i type="int" name="INIWAV">     1</i>
   </separator>
   <separator name="electronic spin" >
    <i type="int" name="ISPIN">     1</i>
    <i type="logical" name="LNONCOLLINEAR"> F  </i>
    <v name="MAGMOM">      1.00000000      1.00000000      1.00000000      1.00000000</v>
    <i name="NUPDOWN">     -1.00000000</i>
    <i type="logical" name="LSORBIT"> F  </i>
    <v name="SAXIS">      0.00000000      0.00000000      1.00000000</v>
    <i type="logical" name="LSPIRAL"> F  </i>
    <v name="QSPIRAL">      0.00000000      0.00000000      0.00000000</v>
    <i type="logical" name="LZEROZ"> F  </i>
   </separator>
   <separator name="electronic exchange-correlation" >
    <i type="logical" name="LASPH"> F  </i>
    <i type="logical" name="LMETAGGA"> F  </i>
   </separator>
   <separator name="electronic convergence" >
    <i type="int" name="NELM">    60</i>
    <i type="int" name="NELMDL">    -5</i>
    <i type="int" name="NELMIN">    10</i>
    <i name="ENINI">    450.00000000</i>
    <separator name="electronic convergence detail" >
     <i type="logical" name="LDIAG"> T  </i>
     <i type="logical" name="LSUBROT"> F  </i>
     <i name="WEIMIN">      0.00100000</i>
     <i name="EBREAK">      0.00000001</i>
     <i name="DEPER">      0.30000000</i>
     <i type="int" name="NRMM">     4</i>
     <i name="TIME">      0.40000000</i>
    </separator>
   </separator>
   <separator name="electronic mixer" >
    <i name="AMIX">      0.40000000</i>
    <i name="BMIX">      1.00000000</i>
    <i name="AMIN">      0.10000000</i>
    <i name="AMIX_MAG">      1.60000000</i>
    <i name="BMIX_MAG">      1.00000000</i>
    <separator name="electronic mixer details" >
     <i type="int" name="IMIX">     4</i>
     <i type="logical" name="MIXFIRST"> F  </i>
     <i type="int" name="MAXMIX">   -45</i>
     <i name="WC">    100.00000000</i>
     <i type="int" name="INIMIX">     1</i>
     <i type="int" name="MIXPRE">     1</i>
     <i type="int" name="MREMOVE">     5</i>
    </separator>
   </separator>
   <separator name="electronic dipolcorrection" >
    <i type="logical" name="LDIPOL"> F  </i>
    <i type="logical" name="LMONO"> F  </i>
    <i type="int" name="IDIPOL">     0</i>
    <i name="EPSILON">      1.00000000</i>
    <v name="DIPOL">   -100.00000000   -100.00000000   -100.00000000</v>
    <i name="EFIELD">      0.00000000</i>
   </separator>
  </separator>
  <separator name="grids" >
   <i type="int" name="NGX">    24</i>
   <i type="int" name="NGY">    24</i>
   <i type="int" name="NGZ">    24</i>
   <i type="int" name="NGXF">    48</i>
   <i type="int" name="NGYF">    48</i>
   <i type="int" name="NGZF">    48</i>
   <i type="logical" name="ADDGRID"> F  </i>
  </separator>
  <separator name="ionic" >
   <i type="int" name="NSW">    10</i>
   <i type="int" name="IBRION">     2</i>
   <i type="int" name="MDALGO">     0</i>
   <i type="int" name="ISIF">     2</i>
   <i name="PSTRESS">      0.00000000</i>
   <i name="EDIFFG">     -0.02000000</i>
   <i type="int" name="NFREE">     1</i>
   <i name="POTIM">      0.20000000</i>
   <i name="SMASS">     -3.00000000</i>
   <i name="SCALEE">      1.00000000</i>
  </separator>
  <separator name="ionic md" >
   <i name="TEBEG">      0.00010000</i>
   <i name="TEEND">      0.00010000</i>
   <i type="int" name="NBLOCK">     1</i>
   <i type="int" name="KBLOCK">    10</i>
   <i type="int" name="NPACO">   256</i>
   <i name="APACO">     16.00000000</i>
  </separator>
  <separator name="symmetry" >
   <i type="int" name="ISYM">     2</i>
   <i name="SYMPREC">      0.00001000</i>
  </separator>
  <separator name="dos" >
   <i type="int" name="LORBIT">     0</i>
   <v name="RWIGS">     -1.00000000</v>
   <i type="int" name="NEDOS">   301</i>
   <i name="EMIN">     10.00000000</i>
   <i name="EMAX">    -10.00000000</i>
   <i name="EFERMI">      0.00000000</i>
  </separator>
  <separator name="writing" >
   <i type="int" name="NWRITE">     2</i>
   <i type="logical" name="LWAVE"> T  </i>
   <i type="logical" name="LDOWNSAMPLE"> F  </i>
   <i type="logical" name="LCHARG"> T  </i>
   <i type="logical" name="LPARD"> F  </i>
   <i type="logical" name="LVTOT"> F  </i>
   <i type="logical" name="LVHAR"> F  </i>
   <i type="logical" name="LELF"> F  </i>
   <i type="logical" name="LOPTICS"> F  </i>
   <v name="STM">      0.00000000      0.00000000      0.00000000      0.00000000      0.00000000      0.00000000      0.00000000</v>
  </separator>
  <separator name="performance" >
   <i type="int" name="NPAR">     2</i>
   <i type="int" name="NSIM">     4</i>
   <i type="int" name="NBLK">    -1</i>
   <i type="logical" name="LPLANE"> T  </i>
   <i type="logical" name="LSCALAPACK"> F  </i>
   <i type="logical" name="LSCAAWARE"> F  </i>
   <i type="logical" name="LSCALU"> F  </i>
   <i type="logical" name="LASYNC"> F  </i>
   <i type="logical" name="LORBITALREAL"> F  </i>
  </separator>
  <separator name="miscellaneous" >
   <i type="int" name="IDIOT">     3</i>
   <i type="int" name="ISPECIAL">     0</i>
   <i type="logical" name="LMUSIC"> F  </i>
   <v name="POMASS">    195.08000000</v>
   <v name="DARWINR">      0.00000000</v>
   <v name="DARWINV">      1.00000000</v>
   <i type="logical" name="LCORR"> T  </i>
  </separator>
  <i type="logical" name="GGA_COMPAT"> T  </i>
  <i type="logical" name="LBERRY"> F  </i>
  <i type="int" name="ICORELEVEL">     0</i>
  <i type="logical" name="LDAU"> F  </i>
  <i type="int" name="I_CONSTRAINED_M">     0</i>
  <separator name="electronic exchange-correlation" >
   <i type="string" name="GGA">91</i>
   <i type="int" name="VOSKOWN">     0</i>
   <i type="logical" name="LHFCALC"> F  </i>
   <i type="string" name="PRECFOCK"></i>
   <i type="logical" name="LSYMGRAD"> F  </i>
   <i type="logical" name="LHFONE"> F  </i>
   <i type="logical" name="LRHFCALC"> F  </i>
   <i type="logical" name="LTHOMAS"> F  </i>
   <i type="logical" name="LMODELHF"> F  </i>
   <i name="ENCUT4O">     -1.00000000</i>
   <i type="int" name="EXXOEP">     0</i>
   <i type="int" name="FOURORBIT">     0</i>
   <i name="AEXX">      0.00000000</i>
   <i name="HFALPHA">      0.00000000</i>
   <i name="MCALPHA">      0.00000000</i>
   <i name="ALDAX">      1.00000000</i>
   <i name="AGGAX">      1.00000000</i>
   <i name="ALDAC">      1.00000000</i>
   <i name="AGGAC">      1.00000000</i>
   <i type="int" name="NKREDX">     1</i>
   <i type="int" name="NKREDY">     1</i>
   <i type="int" name="NKREDZ">     1</i>
   <i type="logical" name="SHIFTRED"> F  </i>
   <i type="logical" name="ODDONLY"> F  </i>
   <i type="logical" name="EVENONLY"> F  </i>
   <i type="int" name="LMAXFOCK">     0</i>
   <i type="int" name="NMAXFOCKAE">     0</i>
   <i type="logical" name="LFOCKAEDFT"> F  </i>
   <i name="HFSCREEN">      0.00000000</i>
   <i name="HFSCREENC">      0.00000000</i>
   <i type="int" name="NBANDSGWLOW">     0</i>
  </separator>
  <separator name="vdW DFT" >
   <i type="logical" name="LUSE_VDW"> F  </i>
   <i name="Zab_VDW">     -0.84910000</i>
   <i name="PARAM1">      0.12340000</i>
   <i name="PARAM2">      1.00000000</i>
   <i name="PARAM3">      0.00000000</i>
  </separator>
  <separator name="model GW" >
   <i type="int" name="MODEL_GW">     0</i>
   <i name="MODEL_EPS0">      9.45671880</i>
   <i name="MODEL_ALPHA">      1.00000000</i>
  </separator>
  <separator name="linear response parameters" >
   <i type="logical" name="LEPSILON"> F  </i>
   <i type="logical" name="LRPA"> F  </i>
   <i type="logical" name="LNABLA"> F  </i>
   <i type="logical" name="LVEL"> F  </i>
   <i type="int" name="KINTER">     0</i>
   <i name="CSHIFT">      0.10000000</i>
   <i name="OMEGAMAX">     -1.00000000</i>
   <i name="DEG_THRESHOLD">      0.00200000</i>
   <i name="RTIME">     -0.10000000</i>
   <i name="WPLASMAI">      0.00000000</i>
   <v name="DFIELD">      0.00000000      0.00000000      0.00000000</v>
   <v name="WPLASMA">      0.00000000      0.00000000      0.00000000      0.00000000      0.00000000      0.00000000      0.00000000      0.00000000      0.00000000</v>
  </separator>
  <separator name="orbital magnetization" >
   <i type="logical" name="NUCIND"> F  </i>
   <v name="MAGPOS">      0.00000000      0.00000000      0.00000000</v>
   <i type="logical" name="LNICSALL"> T  </i>
   <i type="logical" name="ORBITALMAG"> F  </i>
   <i type="logical" name="LMAGBLOCH"> F  </i>
   <i type="logical" name="LCHIMAG"> F  </i>
   <i type="logical" name="LGAUGE"> T  </i>
   <i type="int" name="MAGATOM">     0</i>
   <v name="MAGDIPOL">      0.00000000      0.00000000      0.00000000</v>
   <v name="AVECCONST">      0.00000000      0.00000000      0.00000000</v>
  </separator>
  <separator name="response functions" >
   <i type="logical" name="LADDER"> F  </i>
   <i type="logical" name="LRPAFORCE"> F  </i>
   <i type="logical" name="LFXC"> F  </i>
   <i type="logical" name="LHARTREE"> T  </i>
   <i type="int" name="IBSE">     0</i>
   <v type="int" name="KPOINT">    -1     0     0     0</v>
   <i type="logical" name="LTCTE"> F  </i>
   <i type="logical" name="LTETE"> F  </i>
   <i type="logical" name="LTRIPLET"> F  </i>
   <i type="logical" name="LFXCEPS"> F  </i>
   <i type="logical" name="LFXHEG"> F  </i>
   <i type="int" name="NATURALO">     2</i>
   <i type="logical" name="L2ORDER"> F  </i>
   <i type="logical" name="LMP2LT"> F  </i>
   <i type="logical" name="LUSEW"> F  </i>
   <i name="ENCUTGW">     -2.00000000</i>
   <i name="ENCUTGWSOFT">     -2.00000000</i>
   <i name="ENCUTLF">     -1.00000000</i>
   <i type="int" name="LMAXMP2">    -1</i>
   <i name="SCISSOR">      0.00000000</i>
   <i type="int" name="NOMEGA">     0</i>
   <i type="int" name="NOMEGAR">     0</i>
   <i type="int" name="NBANDSGW">    -1</i>
   <i type="int" name="NBANDSO">    -1</i>
   <i type="int" name="NBANDSV">    -1</i>
   <i type="int" name="NELM">     1</i>
   <i type="int" name="NELMHF">     1</i>
   <i type="int" name="DIM">     3</i>
   <i type="int" name="ANTIRES">     0</i>
   <i name="OMEGAMAX">    -30.00000000</i>
   <i name="OMEGAMIN">    -30.00000000</i>
   <i name="OMEGATL">   -200.00000000</i>
   <i type="int" name="OMEGAGRID">   140</i>
   <i name="CSHIFT">     -0.10000000</i>
   <i type="logical" name="SELFENERGY"> F  </i>
   <i type="logical" name="LSPECTRAL"> F  </i>
   <i type="logical" name="LSPECTRALGW"> F  </i>
   <i type="logical" name="LSINGLES"> F  </i>
   <i type="logical" name="LFERMIGW"> F  </i>
   <i type="logical" name="ODDONLYGW"> F  </i>
   <i type="logical" name="EVENONLYGW"> F  </i>
   <i type="int" name="NKREDLFX">     1</i>
   <i type="int" name="NKREDLFY">     1</i>
   <i type="int" name="NKREDLFZ">     1</i>
   <i type="int" name="MAXMEM">  2800</i>
   <i type="int" name="TELESCOPE">     0</i>
   <i type="int" name="TAUPAR">     1</i>
   <i type="int" name="OMEGAPAR">    -1</i>
   <i name="LAMBDA">      1.00000000</i>
  </separator>
  <separator name="External order field" >
   <i name="OFIELD_KAPPA">      0.00000000</i>
   <v name="OFIELD_K">      0.00000000      0.00000000      0.00000000</v>
   <i name="OFIELD_Q6_NEAR">      0.00000000</i>
   <i name="OFIELD_Q6_FAR">      0.00000000</i>
   <i name="OFIELD_A">      0.00000000</i>
  </separator>
 </parameters>
 <atominfo>
  <atoms>       4 </atoms>
  <types>       1 </types>
  <array name="atoms" >
   <dimension dim="1">ion</dimension>
   <field type="string">element</field>
   <field type="int">atomtype</field>
   <set>
    <rc><c>Pt</c><c>   1</c></rc>
    <rc><c>Pt</c><c>   1</c></rc>
    <rc><c>Pt</c><c>   1</c></rc>
    <rc><c>Pt</c><c>   1</c></rc>
   </set>
  </array>
  <array name="atomtypes" >
   <dimension dim="1">type</dimension>
   <field type="int">atomspertype</field>
   <field type="string">element</field>
   <field>mass</field>
   <field>valence</field>
   <field type="string">pseudopotential</field>
   <set>
    <rc><c>   4</c><c>Pt</c><c>    195.08000000</c><c>     10.00000000</c><c> PAW_PBE Pt 05Jan2001                   </c></rc>
   </set>
  </array>
 </atominfo>
 <structure name="initialpos" >
  <crystal>
   <varray name="basis" >
    <v>       3.98000000       0.00000000       0.00000000 </v>
    <v>       0.00000000       3.98000000       0.00000000 </v>
    <v>       0.00000000       0.00000000       3.98000000 </v>
   </varray>
   <i name="volume">     63.04479200 </i>
   <varray name="rec_basis" >
    <v>       0.25125628       0.00000000       0.00000000 </v>
    <v>       0.00000000       0.25125628       0.00000000 </v>
    <v>       0.00000000       0.00000000       0.25125628 </v>
   </varray>
  </crystal>
  <varray name="positions" >
   <v>       0.00000000       0.00000000       0.00000000 </v>
   <v>       0.00000000       0.50000000       0.50000000 </v>
   <v>       0.50000000       0.00000000       0.50000000 </v>
   <v>       0.50000000       0.50000000       0.00000000 </v>
  </varray>
 </structure>
 <calculation>
  <scstep>
   <time name="dav">    1.07    1.07</time>
   <time name="total">    1.09    1.25</time>
   <energy>
    <i name="alphaZ">    369.24929184 </i>
    <i name="ewald">  -3317.64013855 </i>
    <i name="hartreedc">   -301.82881630 </i>
    <i name="XCdc">     13.53627886 </i>
    <i name="pawpsdc">   2293.79710215 </i>
    <i name="pawaedc">  -2181.03440391 </i>
    <i name="eentropy">     -0.00242577 </i>
    <i name="bandstr">    649.78153399 </i>
    <i name="atom">   2915.53815049 </i>
    <i name="e_fr_energy">    441.39657281 </i>
    <i name="e_wo_entrp">    441.39899858 </i>
    <i name="e_0_energy">    441.39717925 </i>
   </energy>
  </scstep>
  <scstep>
   <time name="dav">    1.04    1.05</time>
   <time name="total">    1.05    1.05</time>
   <energy>
    <i name="e_fr_energy">      3.85207085 </i>
    <i name="e_wo_entrp">      3.85230451 </i>
    <i name="e_0_energy">      3.85212926 </i>
   </energy>
  </scstep>
  <scstep>
   <time name="dav">    1.39    1.39</time>
   <time name="total">    1.40    1.40</time>
   <energy>
    <i name="e_fr_energy">    -25.19031013 </i>
    <i name="e_wo_entrp">    -25.18594906 </i>
    <i name="e_0_energy">    -25.18921986 </i>
   </energy>
  </scstep>
  <scstep>
   <time name="dav">    1.09    1.09</time>
   <time name="total">    1.10    1.10</time>
   <energy>
    <i name="e_fr_energy">    -26.07534415 </i>
    <i name="e_wo_entrp">    -26.07391385 </i>
    <i name="e_0_energy">    -26.07498657 </i>
   </energy>
  </scstep>
  <scstep>
   <time name="dav">    1.21    1.21</time>
   <time name="total">    1.29    1.29</time>
   <energy>
    <i name="e_fr_energy">    -26.10028287 </i>
    <i name="e_wo_entrp">    -26.09889418 </i>
    <i name="e_0_energy">    -26.09993570 </i>
   </energy>
  </scstep>
  <scstep>
   <time name="dav">    1.18    1.18</time>
   <time name="total">    1.27    1.27</time>
   <energy>
    <i name="e_fr_energy">    -24.56280604 </i>
    <i name="e_wo_entrp">    -24.55705466 </i>
    <i name="e_0_energy">    -24.56136819 </i>
   </energy>
  </scstep>
  <scstep>
   <time name="dav">    1.44    1.44</time>
   <time name="total">    1.53    1.53</time>
   <energy>
    <i name="e_fr_energy">    -24.43410271 </i>
    <i name="e_wo_entrp">    -24.42827459 </i>
    <i name="e_0_energy">    -24.43264568 </i>
   </energy>
  </scstep>
  <scstep>
   <time name="dav">    1.04    1.04</time>
   <time name="total">    1.13    1.13</time>
   <energy>
    <i name="e_fr_energy">    -24.41967868 </i>
    <i name="e_wo_entrp">    -24.41393185 </i>
    <i name="e_0_energy">    -24.41824197 </i>
   </energy>
  </scstep>
  <scstep>
   <time name="dav">    1.30    1.30</time>
   <time name="total">    1.38    1.38</time>
   <energy>
    <i name="e_fr_energy">    -24.41937050 </i>
    <i name="e_wo_entrp">    -24.41360107 </i>
    <i name="e_0_energy">    -24.41792815 </i>
   </energy>
  </scstep>
  <scstep>
   <time name="dav">    1.13    1.13</time>
   <time name="total">    1.22    1.22</time>
   <energy>
    <i name="e_fr_energy">    -24.41938855 </i>
    <i name="e_wo_entrp">    -24.41362722 </i>
    <i name="e_0_energy">    -24.41794822 </i>
   </energy>
  </scstep>
  <scstep>
   <time name="dav">    0.87    0.87</time>
   <time name="total">    0.95    0.95</time>
   <energy>
    <i name="e_fr_energy">    -24.41939104 </i>
    <i name="e_wo_entrp">    -24.41363017 </i>
    <i name="e_0_energy">    -24.41795082 </i>
   </energy>
  </scstep>
  <scstep>
   <time name="dav">    0.69    0.69</time>
   <time name="total">    0.71    0.71</time>
   <energy>
    <i name="alphaZ">    369.24929184 </i>
    <i name="ewald">  -3317.64013855 </i>
    <i name="hartreedc">   -261.07051835 </i>
    <i name="XCdc">     11.94007993 </i>
    <i name="pawpsdc">   2378.16068480 </i>
    <i name="pawaedc">  -2275.18956245 </i>
    <i name="eentropy">     -0.00576074 </i>
    <i name="bandstr">    154.59838222 </i>
    <i name="atom">   2915.53815049 </i>
    <i name="e_fr_energy">    -24.41939081 </i>
    <i name="e_wo_entrp">    -24.41363007 </i>
    <i name="e_0_energy">    -24.41795063 </i>
   </energy>
  </scstep>
  <structure>
   <crystal>
    <varray name="basis" >
     <v>       3.98000000       0.00000000       0.00000000 </v>
     <v>       0.00000000       3.98000000       0.00000000 </v>
     <v>       0.00000000       0.00000000       3.98000000 </v>
    </varray>
    <i name="volume">     63.04479200 </i>
    <varray name="rec_basis" >
     <v>       0.25125628       0.00000000       0.00000000 </v>
     <v>       0.00000000       0.25125628       0.00000000 </v>
     <v>       0.00000000       0.00000000       0.25125628 </v>
    </varray>
   </crystal>
   <varray name="positions" >
    <v>       0.00000000       0.00000000       0.00000000 </v>
    <v>       0.00000000       0.50000000       0.50000000 </v>
    <v>       0.50000000       0.00000000       0.50000000 </v>
    <v>       0.50000000       0.50000000       0.00000000 </v>
   </varray>
  </structure>
  <varray name="forces" >
   <v>      -0.00000000       0.00000000      -0.00000000 </v>
   <v>       0.00000000      -0.00000000       0.00000000 </v>
   <v>      -0.00000000      -0.00000000      -0.00000000 </v>
   <v>      -0.00000000      -0.00000000       0.00000000 </v>
  </varray>
  <varray name="stress" >
   <v>      16.44580781       0.00000000       0.00000000 </v>
   <v>       0.00000000      16.44580781       0.00000000 </v>
   <v>      -0.00000000      -0.00000000      16.44580781 </v>
  </varray>
  <energy>
   <i name="e_fr_energy">    -24.41939081 </i>
   <i name="e_wo_entrp">    -24.41795063 </i>
   <i name="e_0_energy">     -0.00576074 </i>
  </energy>
  <time name="totalsc">   15.28   16.55</time>
  <eigenvalues>
   <array>
    <dimension dim="1">band</dimension>
    <dimension dim="2">kpoint</dimension>
    <dimension dim="3">spin</dimension>
    <field>eigene</field>
    <field>occ</field>
    <set>
     <set comment="spin 1">
      <set comment="kpoint 1">
       <r>   -2.4127    1.0000 </r>
       <r>    0.6619    1.0000 </r>
       <r>    0.6619    1.0000 </r>
       <r>    0.6619    1.0000 </r>
       <r>    1.0799    1.0000 </r>
       <r>    1.0799    1.0000 </r>
       <r>    1.0799    1.0000 </r>
       <r>    3.6905    1.0000 </r>
       <r>    3.7222    1.0000 </r>
       <r>    3.7222    1.0000 </r>
       <r>    5.7180    1.0000 </r>
       <r>    5.7180    1.0000 </r>
       <r>    7.2227    0.6383 </r>
       <r>    7.2227    0.6383 </r>
       <r>    7.2227    0.6383 </r>
       <r>    7.4945   -0.0353 </r>
       <r>    7.4945   -0.0353 </r>
       <r>    7.4945   -0.0353 </r>
       <r>    7.6792    0.0045 </r>
       <r>    7.6792    0.0045 </r>
       <r>    7.6792    0.0045 </r>
       <r>    9.3283    0.0000 </r>
       <r>    9.3283    0.0000 </r>
       <r>    9.3283    0.0000 </r>
      </set>
      <set comment="kpoint 2">
       <r>   -2.3120    1.0000 </r>
       <r>    0.6994    1.0000 </r>
       <r>    0.7347    1.0000 </r>
       <r>    0.7347    1.0000 </r>
       <r>    1.1208    1.0000 </r>
       <r>    1.1427    1.0000 </r>
       <r>    1.1427    1.0000 </r>
       <r>    3.6315    1.0000 </r>
       <r>    3.7687    1.0000 </r>
       <r>    3.7726    1.0000 </r>
       <r>    5.6477    1.0000 </r>
       <r>    5.7452    1.0000 </r>
       <r>    6.9517    1.0118 </r>
       <r>    6.9517    1.0118 </r>
       <r>    7.1276    0.9906 </r>
       <r>    7.1276    0.9906 </r>
       <r>    7.1771    0.8454 </r>
       <r>    7.3307    0.1202 </r>
       <r>    7.5674   -0.0051 </r>
       <r>    7.6726    0.0047 </r>
       <r>    7.6726    0.0047 </r>
       <r>    8.8247    0.0000 </r>
       <r>    9.9225    0.0000 </r>
       <r>    9.9225    0.0000 </r>
      </set>
      <set comment="kpoint 3">
       <r>   -2.1129    1.0000 </r>
       <r>    0.7666    1.0000 </r>
       <r>    0.8761    1.0000 </r>
       <r>    0.8761    1.0000 </r>
       <r>    1.2018    1.0000 </r>
       <r>    1.2681    1.0000 </r>
       <r>    1.2681    1.0000 </r>
       <r>    3.5097    1.0000 </r>
       <r>    3.8699    1.0000 </r>
       <r>    3.8730    1.0000 </r>
       <r>    5.5129    1.0000 </r>
       <r>    5.7991    1.0000 </r>
       <r>    6.2829    1.0000 </r>
       <r>    6.2829    1.0000 </r>
       <r>    6.9223    1.0028 </r>
       <r>    6.9223    1.0028 </r>
       <r>    6.9926    1.0299 </r>
       <r>    7.0725    1.0495 </r>
       <r>    7.3756    0.0005 </r>
       <r>    7.6714    0.0047 </r>
       <r>    7.6714    0.0047 </r>
       <r>    8.0903    0.0000 </r>
       <r>   10.7003    0.0000 </r>
       <r>   10.7003    0.0000 </r>
      </set>
      <set comment="kpoint 4">
       <r>   -1.8203    1.0000 </r>
       <r>    0.8461    1.0000 </r>
       <r>    1.0773    1.0000 </r>
       <r>    1.0773    1.0000 </r>
       <r>    1.3213    1.0000 </r>
       <r>    1.4550    1.0000 </r>
       <r>    1.4550    1.0000 </r>
       <r>    3.3368    1.0000 </r>
       <r>    4.0203    1.0000 </r>
       <r>    4.0225    1.0000 </r>
       <r>    5.3251    1.0000 </r>
       <r>    5.6032    1.0000 </r>
       <r>    5.6032    1.0000 </r>
       <r>    5.8780    1.0000 </r>
       <r>    6.4513    1.0000 </r>
       <r>    6.6368    0.9998 </r>
       <r>    6.6368    0.9998 </r>
       <r>    6.8666    0.9955 </r>
       <r>    7.1764    0.8483 </r>
       <r>    7.3953   -0.0284 </r>
       <r>    7.6712    0.0047 </r>
       <r>    7.6712    0.0047 </r>
       <r>   11.5305    0.0000 </r>
       <r>   11.5305    0.0000 </r>
      </set>
      <set comment="kpoint 5">
       <r>   -1.4428    1.0000 </r>
       <r>    0.9060    1.0000 </r>
       <r>    1.3230    1.0000 </r>
       <r>    1.3230    1.0000 </r>
       <r>    1.4768    1.0000 </r>
       <r>    1.7016    1.0000 </r>
       <r>    1.7016    1.0000 </r>
       <r>    3.1244    1.0000 </r>
       <r>    4.2153    1.0000 </r>
       <r>    4.2196    1.0000 </r>
       <r>    4.9485    1.0000 </r>
       <r>    4.9485    1.0000 </r>
       <r>    5.1047    1.0000 </r>
       <r>    5.7655    1.0000 </r>
       <r>    5.9796    1.0000 </r>
       <r>    6.2949    1.0000 </r>
       <r>    6.2949    1.0000 </r>
       <r>    6.5503    1.0000 </r>
       <r>    6.8412    0.9951 </r>
       <r>    7.0127    1.0394 </r>
       <r>    7.6714    0.0047 </r>
       <r>    7.6714    0.0047 </r>
       <r>   12.3676    0.0000 </r>
       <r>   12.3676    0.0000 </r>
      </set>
      <set comment="kpoint 6">
       <r>   -0.9950    1.0000 </r>
       <r>    0.8953    1.0000 </r>
       <r>    1.5875    1.0000 </r>
       <r>    1.5875    1.0000 </r>
       <r>    1.6647    1.0000 </r>
       <r>    2.0045    1.0000 </r>
       <r>    2.0045    1.0000 </r>
       <r>    2.8846    1.0000 </r>
       <r>    4.3320    1.0000 </r>
       <r>    4.3320    1.0000 </r>
       <r>    4.4351    1.0000 </r>
       <r>    4.4622    1.0000 </r>
       <r>    4.8939    1.0000 </r>
       <r>    5.1184    1.0000 </r>
       <r>    5.9392    1.0000 </r>
       <r>    5.9392    1.0000 </r>
       <r>    6.1011    1.0000 </r>
       <r>    6.1808    1.0000 </r>
       <r>    6.3675    1.0000 </r>
       <r>    6.8590    0.9952 </r>
       <r>    7.6717    0.0047 </r>
       <r>    7.6717    0.0047 </r>
       <r>   13.1641    0.0000 </r>
       <r>   13.1641    0.0000 </r>
      </set>
      <set comment="kpoint 7">
       <r>   -0.5010    1.0000 </r>
       <r>    0.7511    1.0000 </r>
       <r>    1.8268    1.0000 </r>
       <r>    1.8268    1.0000 </r>
       <r>    1.8804    1.0000 </r>
       <r>    2.3611    1.0000 </r>
       <r>    2.3611    1.0000 </r>
       <r>    2.6296    1.0000 </r>
       <r>    3.7610    1.0000 </r>
       <r>    3.7610    1.0000 </r>
       <r>    4.5242    1.0000 </r>
       <r>    4.6552    1.0000 </r>
       <r>    4.7469    1.0000 </r>
       <r>    4.8806    1.0000 </r>
       <r>    5.6306    1.0000 </r>
       <r>    5.6306    1.0000 </r>
       <r>    5.7977    1.0000 </r>
       <r>    5.9317    1.0000 </r>
       <r>    6.2386    1.0000 </r>
       <r>    6.7027    0.9991 </r>
       <r>    7.6720    0.0047 </r>
       <r>    7.6720    0.0047 </r>
       <r>   13.7614    0.0000 </r>
       <r>   13.7614    0.0000 </r>
      </set>
      <set comment="kpoint 8">
       <r>   -0.0015    1.0000 </r>
       <r>    0.4404    1.0000 </r>
       <r>    1.9757    1.0000 </r>
       <r>    1.9757    1.0000 </r>
       <r>    2.1182    1.0000 </r>
       <r>    2.3708    1.0000 </r>
       <r>    2.7715    1.0000 </r>
       <r>    2.7715    1.0000 </r>
       <r>    3.2410    1.0000 </r>
       <r>    3.2410    1.0000 </r>
       <r>    4.4305    1.0000 </r>
       <r>    4.4371    1.0000 </r>
       <r>    5.0692    1.0000 </r>
       <r>    5.1641    1.0000 </r>
       <r>    5.4226    1.0000 </r>
       <r>    5.4450    1.0000 </r>
       <r>    5.4450    1.0000 </r>
       <r>    5.5278    1.0000 </r>
       <r>    6.3880    1.0000 </r>
       <r>    6.5443    1.0000 </r>
       <r>    7.6722    0.0047 </r>
       <r>    7.6722    0.0047 </r>
       <r>   13.9315    0.0000 </r>
       <r>   13.9315    0.0000 </r>
      </set>
      <set comment="kpoint 9">
       <r>   -2.2127    1.0000 </r>
       <r>    0.7727    1.0000 </r>
       <r>    0.7727    1.0000 </r>
       <r>    0.7980    1.0000 </r>
       <r>    1.1828    1.0000 </r>
       <r>    1.1828    1.0000 </r>
       <r>    1.2115    1.0000 </r>
       <r>    3.5989    1.0000 </r>
       <r>    3.7924    1.0000 </r>
       <r>    3.8166    1.0000 </r>
       <r>    5.6287    1.0000 </r>
       <r>    5.7284    1.0000 </r>
       <r>    6.6376    0.9998 </r>
       <r>    6.7359    0.9983 </r>
       <r>    6.7359    0.9983 </r>
       <r>    7.0138    1.0398 </r>
       <r>    7.1077    1.0230 </r>
       <r>    7.1077    1.0230 </r>
       <r>    7.5660   -0.0055 </r>
       <r>    7.5660   -0.0055 </r>
       <r>    7.6090    0.0028 </r>
       <r>    9.4324    0.0000 </r>
       <r>    9.4324    0.0000 </r>
       <r>   10.3727    0.0000 </r>
      </set>
      <set comment="kpoint 10">
       <r>   -2.0163    1.0000 </r>
       <r>    0.8412    1.0000 </r>
       <r>    0.9155    1.0000 </r>
       <r>    0.9219    1.0000 </r>
       <r>    1.2623    1.0000 </r>
       <r>    1.3066    1.0000 </r>
       <r>    1.3472    1.0000 </r>
       <r>    3.4961    1.0000 </r>
       <r>    3.8785    1.0000 </r>
       <r>    3.9059    1.0000 </r>
       <r>    5.5169    1.0000 </r>
       <r>    5.7738    1.0000 </r>
       <r>    6.0652    1.0000 </r>
       <r>    6.1023    1.0000 </r>
       <r>    6.3696    1.0000 </r>
       <r>    6.8277    0.9953 </r>
       <r>    6.9236    1.0031 </r>
       <r>    6.9970    1.0320 </r>
       <r>    7.3847   -0.0145 </r>
       <r>    7.5583   -0.0078 </r>
       <r>    7.5702   -0.0043 </r>
       <r>    8.7230    0.0000 </r>
       <r>   10.1789    0.0000 </r>
       <r>   11.0519    0.0000 </r>
      </set>
      <set comment="kpoint 11">
       <r>   -1.7277    1.0000 </r>
       <r>    0.9224    1.0000 </r>
       <r>    1.1011    1.0000 </r>
       <r>    1.1188    1.0000 </r>
       <r>    1.3793    1.0000 </r>
       <r>    1.4911    1.0000 </r>
       <r>    1.5449    1.0000 </r>
       <r>    3.3346    1.0000 </r>
       <r>    4.0229    1.0000 </r>
       <r>    4.0357    1.0000 </r>
       <r>    5.3452    1.0000 </r>
       <r>    5.3975    1.0000 </r>
       <r>    5.4965    1.0000 </r>
       <r>    5.8611    1.0000 </r>
       <r>    5.8762    1.0000 </r>
       <r>    6.5653    1.0000 </r>
       <r>    6.6589    0.9996 </r>
       <r>    6.7770    0.9970 </r>
       <r>    7.1709    0.8687 </r>
       <r>    7.5520   -0.0100 </r>
       <r>    7.5521   -0.0099 </r>
       <r>    8.0181    0.0000 </r>
       <r>   10.9426    0.0000 </r>
       <r>   11.8235    0.0000 </r>
      </set>
      <set comment="kpoint 12">
       <r>   -1.3553    1.0000 </r>
       <r>    0.9840    1.0000 </r>
       <r>    1.3277    1.0000 </r>
       <r>    1.3679    1.0000 </r>
       <r>    1.5315    1.0000 </r>
       <r>    1.7342    1.0000 </r>
       <r>    1.7949    1.0000 </r>
       <r>    3.1315    1.0000 </r>
       <r>    4.1921    1.0000 </r>
       <r>    4.2184    1.0000 </r>
       <r>    4.7608    1.0000 </r>
       <r>    4.8863    1.0000 </r>
       <r>    5.1526    1.0000 </r>
       <r>    5.3140    1.0000 </r>
       <r>    5.9772    1.0000 </r>
       <r>    6.2465    1.0000 </r>
       <r>    6.3351    1.0000 </r>
       <r>    6.4665    1.0000 </r>
       <r>    6.9077    0.9997 </r>
       <r>    7.4476   -0.0513 </r>
       <r>    7.5435   -0.0131 </r>
       <r>    7.5479   -0.0114 </r>
       <r>   11.6744    0.0000 </r>
       <r>   12.6208    0.0000 </r>
      </set>
      <set comment="kpoint 13">
       <r>   -0.9133    1.0000 </r>
       <r>    0.9736    1.0000 </r>
       <r>    1.5869    1.0000 </r>
       <r>    1.6376    1.0000 </r>
       <r>    1.7151    1.0000 </r>
       <r>    2.0318    1.0000 </r>
       <r>    2.0813    1.0000 </r>
       <r>    2.9004    1.0000 </r>
       <r>    4.1672    1.0000 </r>
       <r>    4.2993    1.0000 </r>
       <r>    4.3319    1.0000 </r>
       <r>    4.4564    1.0000 </r>
       <r>    4.7874    1.0000 </r>
       <r>    5.0103    1.0000 </r>
       <r>    5.9122    1.0000 </r>
       <r>    5.9906    1.0000 </r>
       <r>    6.1104    1.0000 </r>
       <r>    6.1170    1.0000 </r>
       <r>    6.5263    1.0000 </r>
       <r>    7.0827    1.0453 </r>
       <r>    7.5400   -0.0145 </r>
       <r>    7.5450   -0.0125 </r>
       <r>   12.3246    0.0000 </r>
       <r>   13.3512    0.0000 </r>
      </set>
      <set comment="kpoint 14">
       <r>   -0.4248    1.0000 </r>
       <r>    0.8270    1.0000 </r>
       <r>    1.8439    1.0000 </r>
       <r>    1.8840    1.0000 </r>
       <r>    1.9255    1.0000 </r>
       <r>    2.3799    1.0000 </r>
       <r>    2.3897    1.0000 </r>
       <r>    2.6537    1.0000 </r>
       <r>    3.6266    1.0000 </r>
       <r>    3.7499    1.0000 </r>
       <r>    4.3440    1.0000 </r>
       <r>    4.4113    1.0000 </r>
       <r>    4.7331    1.0000 </r>
       <r>    5.0608    1.0000 </r>
       <r>    5.6246    1.0000 </r>
       <r>    5.6821    1.0000 </r>
       <r>    5.7423    1.0000 </r>
       <r>    6.0881    1.0000 </r>
       <r>    6.2765    1.0000 </r>
       <r>    6.8428    0.9951 </r>
       <r>    7.5391   -0.0148 </r>
       <r>    7.5427   -0.0134 </r>
       <r>   12.8375    0.0000 </r>
       <r>   13.5730    0.0000 </r>
      </set>
      <set comment="kpoint 15">
       <r>    0.0712    1.0000 </r>
       <r>    0.5131    1.0000 </r>
       <r>    2.0226    1.0000 </r>
       <r>    2.0363    1.0000 </r>
       <r>    2.1570    1.0000 </r>
       <r>    2.4026    1.0000 </r>
       <r>    2.7256    1.0000 </r>
       <r>    2.7715    1.0000 </r>
       <r>    3.1568    1.0000 </r>
       <r>    3.2506    1.0000 </r>
       <r>    4.2474    1.0000 </r>
       <r>    4.2613    1.0000 </r>
       <r>    5.0435    1.0000 </r>
       <r>    5.3163    1.0000 </r>
       <r>    5.3825    1.0000 </r>
       <r>    5.4617    1.0000 </r>
       <r>    5.4835    1.0000 </r>
       <r>    5.6739    1.0000 </r>
       <r>    6.4517    1.0000 </r>
       <r>    6.6398    0.9998 </r>
       <r>    7.5396   -0.0146 </r>
       <r>    7.5409   -0.0141 </r>
       <r>   13.1884    0.0000 </r>
       <r>   13.4198    0.0000 </r>
      </set>
      <set comment="kpoint 16">
       <r>   -1.8253    1.0000 </r>
       <r>    0.9865    1.0000 </r>
       <r>    0.9865    1.0000 </r>
       <r>    1.0162    1.0000 </r>
       <r>    1.3828    1.0000 </r>
       <r>    1.3828    1.0000 </r>
       <r>    1.4979    1.0000 </r>
       <r>    3.4355    1.0000 </r>
       <r>    3.9304    1.0000 </r>
       <r>    3.9717    1.0000 </r>
       <r>    5.4710    1.0000 </r>
       <r>    5.7031    1.0000 </r>
       <r>    5.7031    1.0000 </r>
       <r>    5.7482    1.0000 </r>
       <r>    5.7828    1.0000 </r>
       <r>    6.6582    0.9996 </r>
       <r>    6.8573    0.9952 </r>
       <r>    6.8573    0.9952 </r>
       <r>    7.3588    0.0361 </r>
       <r>    7.3588    0.0361 </r>
       <r>    7.4621   -0.0483 </r>
       <r>    9.4391    0.0000 </r>
       <r>    9.4391    0.0000 </r>
       <r>   11.6326    0.0000 </r>
      </set>
      <set comment="kpoint 17">
       <r>   -1.5447    1.0000 </r>
       <r>    1.0712    1.0000 </r>
       <r>    1.1617    1.0000 </r>
       <r>    1.1940    1.0000 </r>
       <r>    1.4951    1.0000 </r>
       <r>    1.5625    1.0000 </r>
       <r>    1.7071    1.0000 </r>
       <r>    3.3105    1.0000 </r>
       <r>    4.0495    1.0000 </r>
       <r>    4.0636    1.0000 </r>
       <r>    5.0595    1.0000 </r>
       <r>    5.2544    1.0000 </r>
       <r>    5.2769    1.0000 </r>
       <r>    5.3457    1.0000 </r>
       <r>    5.8693    1.0000 </r>
       <r>    6.4274    1.0000 </r>
       <r>    6.6358    0.9998 </r>
       <r>    6.6816    0.9994 </r>
       <r>    7.1133    1.0153 </r>
       <r>    7.3369    0.0989 </r>
       <r>    7.3879   -0.0191 </r>
       <r>    8.6960    0.0000 </r>
       <r>   10.1485    0.0000 </r>
       <r>   12.3305    0.0000 </r>
      </set>
      <set comment="kpoint 18">
       <r>   -1.1826    1.0000 </r>
       <r>    1.1362    1.0000 </r>
       <r>    1.3579    1.0000 </r>
       <r>    1.4496    1.0000 </r>
       <r>    1.6406    1.0000 </r>
       <r>    1.7989    1.0000 </r>
       <r>    1.9561    1.0000 </r>
       <r>    3.1345    1.0000 </r>
       <r>    4.1615    1.0000 </r>
       <r>    4.2304    1.0000 </r>
       <r>    4.4540    1.0000 </r>
       <r>    4.7558    1.0000 </r>
       <r>    4.7778    1.0000 </r>
       <r>    5.1959    1.0000 </r>
       <r>    6.0100    1.0000 </r>
       <r>    6.1472    1.0000 </r>
       <r>    6.3496    1.0000 </r>
       <r>    6.4005    1.0000 </r>
       <r>    6.8349    0.9951 </r>
       <r>    7.3225    0.1504 </r>
       <r>    7.3438    0.0771 </r>
       <r>    8.0530    0.0000 </r>
       <r>   10.8163    0.0000 </r>
       <r>   13.0511    0.0000 </r>
      </set>
      <set comment="kpoint 19">
       <r>   -0.7523    1.0000 </r>
       <r>    1.1261    1.0000 </r>
       <r>    1.5997    1.0000 </r>
       <r>    1.7300    1.0000 </r>
       <r>    1.8154    1.0000 </r>
       <r>    2.0865    1.0000 </r>
       <r>    2.2176    1.0000 </r>
       <r>    2.9254    1.0000 </r>
       <r>    3.8967    1.0000 </r>
       <r>    4.2166    1.0000 </r>
       <r>    4.2295    1.0000 </r>
       <r>    4.3548    1.0000 </r>
       <r>    4.4600    1.0000 </r>
       <r>    5.1085    1.0000 </r>
       <r>    5.8512    1.0000 </r>
       <r>    6.0324    1.0000 </r>
       <r>    6.0602    1.0000 </r>
       <r>    6.1874    1.0000 </r>
       <r>    6.5010    1.0000 </r>
       <r>    7.3130    0.1881 </r>
       <r>    7.3197    0.1612 </r>
       <r>    7.5524   -0.0098 </r>
       <r>   11.4121    0.0000 </r>
       <r>   13.2138    0.0000 </r>
      </set>
      <set comment="kpoint 20">
       <r>   -0.2754    1.0000 </r>
       <r>    0.9741    1.0000 </r>
       <r>    1.8696    1.0000 </r>
       <r>    1.9927    1.0000 </r>
       <r>    2.0148    1.0000 </r>
       <r>    2.4163    1.0000 </r>
       <r>    2.4560    1.0000 </r>
       <r>    2.6977    1.0000 </r>
       <r>    3.4023    1.0000 </r>
       <r>    3.7244    1.0000 </r>
       <r>    4.0783    1.0000 </r>
       <r>    4.1673    1.0000 </r>
       <r>    4.7289    1.0000 </r>
       <r>    5.1803    1.0000 </r>
       <r>    5.6006    1.0000 </r>
       <r>    5.7039    1.0000 </r>
       <r>    5.7349    1.0000 </r>
       <r>    6.1203    1.0000 </r>
       <r>    6.3931    1.0000 </r>
       <r>    7.1782    0.8414 </r>
       <r>    7.3068    0.2143 </r>
       <r>    7.3077    0.2104 </r>
       <r>   11.9118    0.0000 </r>
       <r>   12.9278    0.0000 </r>
      </set>
      <set comment="kpoint 21">
       <r>    0.2125    1.0000 </r>
       <r>    0.6538    1.0000 </r>
       <r>    2.1038    1.0000 </r>
       <r>    2.1548    1.0000 </r>
       <r>    2.2332    1.0000 </r>
       <r>    2.4636    1.0000 </r>
       <r>    2.6600    1.0000 </r>
       <r>    2.7516    1.0000 </r>
       <r>    3.0315    1.0000 </r>
       <r>    3.2624    1.0000 </r>
       <r>    3.9933    1.0000 </r>
       <r>    4.0556    1.0000 </r>
       <r>    5.0294    1.0000 </r>
       <r>    5.3562    1.0000 </r>
       <r>    5.4114    1.0000 </r>
       <r>    5.4742    1.0000 </r>
       <r>    5.5255    1.0000 </r>
       <r>    5.7410    1.0000 </r>
       <r>    6.6236    0.9998 </r>
       <r>    6.8806    0.9963 </r>
       <r>    7.3032    0.2301 </r>
       <r>    7.3034    0.2293 </r>
       <r>   12.3111    0.0000 </r>
       <r>   12.6352    0.0000 </r>
      </set>
      <set comment="kpoint 22">
       <r>   -1.2760    1.0000 </r>
       <r>    1.2692    1.0000 </r>
       <r>    1.2844    1.0000 </r>
       <r>    1.2844    1.0000 </r>
       <r>    1.6676    1.0000 </r>
       <r>    1.6676    1.0000 </r>
       <r>    1.9204    1.0000 </r>
       <r>    3.2392    1.0000 </r>
       <r>    4.1027    1.0000 </r>
       <r>    4.1307    1.0000 </r>
       <r>    4.6568    1.0000 </r>
       <r>    4.6568    1.0000 </r>
       <r>    4.9517    1.0000 </r>
       <r>    5.2802    1.0000 </r>
       <r>    5.9586    1.0000 </r>
       <r>    6.2334    1.0000 </r>
       <r>    6.5166    1.0000 </r>
       <r>    6.5166    1.0000 </r>
       <r>    7.0617    1.0515 </r>
       <r>    7.0617    1.0515 </r>
       <r>    7.2423    0.5366 </r>
       <r>    9.3607    0.0000 </r>
       <r>    9.3607    0.0000 </r>
       <r>   12.9462    0.0000 </r>
      </set>
      <set comment="kpoint 23">
       <r>   -0.9295    1.0000 </r>
       <r>    1.3546    1.0000 </r>
       <r>    1.4279    1.0000 </r>
       <r>    1.5486    1.0000 </r>
       <r>    1.8034    1.0000 </r>
       <r>    1.8947    1.0000 </r>
       <r>    2.1608    1.0000 </r>
       <r>    3.1139    1.0000 </r>
       <r>    4.0974    1.0000 </r>
       <r>    4.1371    1.0000 </r>
       <r>    4.2508    1.0000 </r>
       <r>    4.2781    1.0000 </r>
       <r>    4.5515    1.0000 </r>
       <r>    5.1751    1.0000 </r>
       <r>    5.9973    1.0000 </r>
       <r>    6.1301    1.0000 </r>
       <r>    6.2814    1.0000 </r>
       <r>    6.2884    1.0000 </r>
       <r>    6.7544    0.9978 </r>
       <r>    7.0284    1.0457 </r>
       <r>    7.1362    0.9721 </r>
       <r>    8.6649    0.0000 </r>
       <r>    9.9874    0.0000 </r>
       <r>   12.9812    0.0000 </r>
      </set>
      <set comment="kpoint 24">
       <r>   -0.5174    1.0000 </r>
       <r>    1.3440    1.0000 </r>
       <r>    1.6381    1.0000 </r>
       <r>    1.8433    1.0000 </r>
       <r>    1.9648    1.0000 </r>
       <r>    2.1691    1.0000 </r>
       <r>    2.3936    1.0000 </r>
       <r>    2.9465    1.0000 </r>
       <r>    3.5861    1.0000 </r>
       <r>    3.9188    1.0000 </r>
       <r>    4.1157    1.0000 </r>
       <r>    4.1251    1.0000 </r>
       <r>    4.4843    1.0000 </r>
       <r>    5.1162    1.0000 </r>
       <r>    5.7471    1.0000 </r>
       <r>    5.9830    1.0000 </r>
       <r>    6.0049    1.0000 </r>
       <r>    6.3569    1.0000 </r>
       <r>    6.4176    1.0000 </r>
       <r>    7.0090    1.0376 </r>
       <r>    7.0672    1.0508 </r>
       <r>    8.0914    0.0000 </r>
       <r>   10.5551    0.0000 </r>
       <r>   12.5600    0.0000 </r>
      </set>
      <set comment="kpoint 25">
       <r>   -0.0592    1.0000 </r>
       <r>    1.1818    1.0000 </r>
       <r>    1.8955    1.0000 </r>
       <r>    2.1340    1.0000 </r>
       <r>    2.1466    1.0000 </r>
       <r>    2.4705    1.0000 </r>
       <r>    2.5668    1.0000 </r>
       <r>    2.7533    1.0000 </r>
       <r>    3.1428    1.0000 </r>
       <r>    3.6785    1.0000 </r>
       <r>    3.7440    1.0000 </r>
       <r>    4.0270    1.0000 </r>
       <r>    4.7343    1.0000 </r>
       <r>    5.1864    1.0000 </r>
       <r>    5.5395    1.0000 </r>
       <r>    5.6493    1.0000 </r>
       <r>    5.7321    1.0000 </r>
       <r>    6.0566    1.0000 </r>
       <r>    6.6219    0.9998 </r>
       <r>    6.9990    1.0329 </r>
       <r>    7.0264    1.0450 </r>
       <r>    7.6305    0.0045 </r>
       <r>   11.0490    0.0000 </r>
       <r>   12.1849    0.0000 </r>
      </set>
      <set comment="kpoint 26">
       <r>    0.4141    1.0000 </r>
       <r>    0.8520    1.0000 </r>
       <r>    2.1792    1.0000 </r>
       <r>    2.3255    1.0000 </r>
       <r>    2.3433    1.0000 </r>
       <r>    2.5485    1.0000 </r>
       <r>    2.6277    1.0000 </r>
       <r>    2.6508    1.0000 </r>
       <r>    2.9538    1.0000 </r>
       <r>    3.2685    1.0000 </r>
       <r>    3.7497    1.0000 </r>
       <r>    3.8741    1.0000 </r>
       <r>    5.0153    1.0000 </r>
       <r>    5.3216    1.0000 </r>
       <r>    5.3957    1.0000 </r>
       <r>    5.4506    1.0000 </r>
       <r>    5.5246    1.0000 </r>
       <r>    5.7016    1.0000 </r>
       <r>    6.9184    1.0019 </r>
       <r>    6.9973    1.0321 </r>
       <r>    7.0052    1.0359 </r>
       <r>    7.2494    0.4994 </r>
       <r>   11.4690    0.0000 </r>
       <r>   11.8351    0.0000 </r>
      </set>
      <set comment="kpoint 27">
       <r>   -0.6037    1.0000 </r>
       <r>    1.5440    1.0000 </r>
       <r>    1.6257    1.0000 </r>
       <r>    1.6257    1.0000 </r>
       <r>    2.0183    1.0000 </r>
       <r>    2.0183    1.0000 </r>
       <r>    2.3831    1.0000 </r>
       <r>    3.0526    1.0000 </r>
       <r>    3.7559    1.0000 </r>
       <r>    3.7559    1.0000 </r>
       <r>    4.1127    1.0000 </r>
       <r>    4.2776    1.0000 </r>
       <r>    4.3819    1.0000 </r>
       <r>    5.0999    1.0000 </r>
       <r>    5.8058    1.0000 </r>
       <r>    6.1091    1.0000 </r>
       <r>    6.1091    1.0000 </r>
       <r>    6.3440    1.0000 </r>
       <r>    6.6963    0.9992 </r>
       <r>    6.6963    0.9992 </r>
       <r>    6.9597    1.0150 </r>
       <r>    9.2529    0.0000 </r>
       <r>    9.2529    0.0000 </r>
       <r>   12.4220    0.0000 </r>
      </set>
      <set comment="kpoint 28">
       <r>   -0.2169    1.0000 </r>
       <r>    1.6113    1.0000 </r>
       <r>    1.7084    1.0000 </r>
       <r>    1.9294    1.0000 </r>
       <r>    2.1619    1.0000 </r>
       <r>    2.2794    1.0000 </r>
       <r>    2.5863    1.0000 </r>
       <r>    2.9474    1.0000 </r>
       <r>    3.3041    1.0000 </r>
       <r>    3.5123    1.0000 </r>
       <r>    3.9529    1.0000 </r>
       <r>    4.0553    1.0000 </r>
       <r>    4.5453    1.0000 </r>
       <r>    5.0499    1.0000 </r>
       <r>    5.5985    1.0000 </r>
       <r>    5.8506    1.0000 </r>
       <r>    5.8789    1.0000 </r>
       <r>    6.3428    1.0000 </r>
       <r>    6.6224    0.9998 </r>
       <r>    6.6647    0.9996 </r>
       <r>    6.8277    0.9953 </r>
       <r>    8.6337    0.0000 </r>
       <r>    9.7973    0.0000 </r>
       <r>   11.9263    0.0000 </r>
      </set>
      <set comment="kpoint 29">
       <r>    0.2139    1.0000 </r>
       <r>    1.4309    1.0000 </r>
       <r>    1.9219    1.0000 </r>
       <r>    2.2385    1.0000 </r>
       <r>    2.3178    1.0000 </r>
       <r>    2.5572    1.0000 </r>
       <r>    2.7133    1.0000 </r>
       <r>    2.8081    1.0000 </r>
       <r>    2.9192    1.0000 </r>
       <r>    3.4467    1.0000 </r>
       <r>    3.6053    1.0000 </r>
       <r>    3.9256    1.0000 </r>
       <r>    4.7531    1.0000 </r>
       <r>    5.1146    1.0000 </r>
       <r>    5.4277    1.0000 </r>
       <r>    5.5516    1.0000 </r>
       <r>    5.6393    1.0000 </r>
       <r>    5.9784    1.0000 </r>
       <r>    6.6531    0.9997 </r>
       <r>    6.7390    0.9982 </r>
       <r>    6.9426    1.0086 </r>
       <r>    8.1195    0.0000 </r>
       <r>   10.2857    0.0000 </r>
       <r>   11.5005    0.0000 </r>
      </set>
      <set comment="kpoint 30">
       <r>    0.6630    1.0000 </r>
       <r>    1.0901    1.0000 </r>
       <r>    2.1825    1.0000 </r>
       <r>    2.4621    1.0000 </r>
       <r>    2.4820    1.0000 </r>
       <r>    2.5395    1.0000 </r>
       <r>    2.6487    1.0000 </r>
       <r>    2.6979    1.0000 </r>
       <r>    2.9483    1.0000 </r>
       <r>    3.2630    1.0000 </r>
       <r>    3.5492    1.0000 </r>
       <r>    3.7363    1.0000 </r>
       <r>    4.9891    1.0000 </r>
       <r>    5.2561    1.0000 </r>
       <r>    5.3206    1.0000 </r>
       <r>    5.3648    1.0000 </r>
       <r>    5.4466    1.0000 </r>
       <r>    5.6255    1.0000 </r>
       <r>    6.6592    0.9996 </r>
       <r>    6.6857    0.9993 </r>
       <r>    7.2950    0.2675 </r>
       <r>    7.6823    0.0044 </r>
       <r>   10.7182    0.0000 </r>
       <r>   11.1117    0.0000 </r>
      </set>
      <set comment="kpoint 31">
       <r>    0.1376    1.0000 </r>
       <r>    1.8139    1.0000 </r>
       <r>    1.9003    1.0000 </r>
       <r>    1.9003    1.0000 </r>
       <r>    2.4035    1.0000 </r>
       <r>    2.4035    1.0000 </r>
       <r>    2.7616    1.0000 </r>
       <r>    2.9153    1.0000 </r>
       <r>    3.1539    1.0000 </r>
       <r>    3.1539    1.0000 </r>
       <r>    3.7435    1.0000 </r>
       <r>    3.9779    1.0000 </r>
       <r>    4.6459    1.0000 </r>
       <r>    4.9959    1.0000 </r>
       <r>    5.4243    1.0000 </r>
       <r>    5.6633    1.0000 </r>
       <r>    5.6633    1.0000 </r>
       <r>    6.3021    1.0000 </r>
       <r>    6.3021    1.0000 </r>
       <r>    6.6274    0.9998 </r>
       <r>    6.9507    1.0115 </r>
       <r>    9.1523    0.0000 </r>
       <r>    9.1523    0.0000 </r>
       <r>   11.3789    0.0000 </r>
      </set>
      <set comment="kpoint 32">
       <r>    0.5305    1.0000 </r>
       <r>    1.6878    1.0000 </r>
       <r>    1.9540    1.0000 </r>
       <r>    2.1562    1.0000 </r>
       <r>    2.5230    1.0000 </r>
       <r>    2.6795    1.0000 </r>
       <r>    2.8477    1.0000 </r>
       <r>    2.8671    1.0000 </r>
       <r>    2.8757    1.0000 </r>
       <r>    3.2123    1.0000 </r>
       <r>    3.5008    1.0000 </r>
       <r>    3.8452    1.0000 </r>
       <r>    4.7653    1.0000 </r>
       <r>    5.0670    1.0000 </r>
       <r>    5.2734    1.0000 </r>
       <r>    5.3988    1.0000 </r>
       <r>    5.4574    1.0000 </r>
       <r>    5.9368    1.0000 </r>
       <r>    6.2945    1.0000 </r>
       <r>    6.4769    1.0000 </r>
       <r>    7.3171    0.1713 </r>
       <r>    8.6079    0.0000 </r>
       <r>    9.6332    0.0000 </r>
       <r>   10.9117    0.0000 </r>
      </set>
      <set comment="kpoint 33">
       <r>    0.9414    1.0000 </r>
       <r>    1.3423    1.0000 </r>
       <r>    2.1178    1.0000 </r>
       <r>    2.2435    1.0000 </r>
       <r>    2.6401    1.0000 </r>
       <r>    2.7520    1.0000 </r>
       <r>    2.7770    1.0000 </r>
       <r>    2.8532    1.0000 </r>
       <r>    2.9688    1.0000 </r>
       <r>    3.2420    1.0000 </r>
       <r>    3.4085    1.0000 </r>
       <r>    3.6421    1.0000 </r>
       <r>    4.9190    1.0000 </r>
       <r>    5.1365    1.0000 </r>
       <r>    5.2156    1.0000 </r>
       <r>    5.2850    1.0000 </r>
       <r>    5.2877    1.0000 </r>
       <r>    5.5887    1.0000 </r>
       <r>    6.3178    1.0000 </r>
       <r>    6.3760    1.0000 </r>
       <r>    7.7115    0.0034 </r>
       <r>    8.1365    0.0000 </r>
       <r>   10.0745    0.0000 </r>
       <r>   10.4904    0.0000 </r>
      </set>
      <set comment="kpoint 34">
       <r>    0.8747    1.0000 </r>
       <r>    1.8999    1.0000 </r>
       <r>    1.8999    1.0000 </r>
       <r>    1.9930    1.0000 </r>
       <r>    2.7477    1.0000 </r>
       <r>    2.7477    1.0000 </r>
       <r>    2.8608    1.0000 </r>
       <r>    2.9814    1.0000 </r>
       <r>    3.0718    1.0000 </r>
       <r>    3.0718    1.0000 </r>
       <r>    3.3672    1.0000 </r>
       <r>    3.7414    1.0000 </r>
       <r>    4.7595    1.0000 </r>
       <r>    5.1200    1.0000 </r>
       <r>    5.1494    1.0000 </r>
       <r>    5.2225    1.0000 </r>
       <r>    5.2225    1.0000 </r>
       <r>    5.9430    1.0000 </r>
       <r>    5.9430    1.0000 </r>
       <r>    6.2605    1.0000 </r>
       <r>    7.7209    0.0031 </r>
       <r>    9.0777    0.0000 </r>
       <r>    9.0777    0.0000 </r>
       <r>   10.4092    0.0000 </r>
      </set>
      <set comment="kpoint 35">
       <r>    1.2289    1.0000 </r>
       <r>    1.5769    1.0000 </r>
       <r>    2.0123    1.0000 </r>
       <r>    2.0256    1.0000 </r>
       <r>    2.8023    1.0000 </r>
       <r>    2.8438    1.0000 </r>
       <r>    2.9399    1.0000 </r>
       <r>    3.0087    1.0000 </r>
       <r>    3.0694    1.0000 </r>
       <r>    3.2129    1.0000 </r>
       <r>    3.3298    1.0000 </r>
       <r>    3.5679    1.0000 </r>
       <r>    4.8237    1.0000 </r>
       <r>    4.9915    1.0000 </r>
       <r>    5.0399    1.0000 </r>
       <r>    5.0820    1.0000 </r>
       <r>    5.3463    1.0000 </r>
       <r>    5.6193    1.0000 </r>
       <r>    5.9960    1.0000 </r>
       <r>    6.1000    1.0000 </r>
       <r>    8.1443    0.0000 </r>
       <r>    8.5908    0.0000 </r>
       <r>    9.5248    0.0000 </r>
       <r>    9.9596    0.0000 </r>
      </set>
      <set comment="kpoint 36">
       <r>    1.5078    1.0000 </r>
       <r>    1.7687    1.0000 </r>
       <r>    1.7687    1.0000 </r>
       <r>    1.9136    1.0000 </r>
       <r>    2.9106    1.0000 </r>
       <r>    2.9454    1.0000 </r>
       <r>    2.9454    1.0000 </r>
       <r>    3.0403    1.0000 </r>
       <r>    3.2372    1.0000 </r>
       <r>    3.2886    1.0000 </r>
       <r>    3.2886    1.0000 </r>
       <r>    3.4629    1.0000 </r>
       <r>    4.7972    1.0000 </r>
       <r>    4.8941    1.0000 </r>
       <r>    4.8941    1.0000 </r>
       <r>    4.9100    1.0000 </r>
       <r>    5.4940    1.0000 </r>
       <r>    5.7151    1.0000 </r>
       <r>    5.7151    1.0000 </r>
       <r>    5.8761    1.0000 </r>
       <r>    8.5849    0.0000 </r>
       <r>    9.0385    0.0000 </r>
       <r>    9.0385    0.0000 </r>
       <r>    9.4871    0.0000 </r>
      </set>
      <set comment="kpoint 37">
       <r>   -2.1150    1.0000 </r>
       <r>    0.8359    1.0000 </r>
       <r>    0.8359    1.0000 </r>
       <r>    0.8359    1.0000 </r>
       <r>    1.2514    1.0000 </r>
       <r>    1.2514    1.0000 </r>
       <r>    1.2514    1.0000 </r>
       <r>    3.5722    1.0000 </r>
       <r>    3.8339    1.0000 </r>
       <r>    3.8339    1.0000 </r>
       <r>    5.6642    1.0000 </r>
       <r>    5.6642    1.0000 </r>
       <r>    6.4446    1.0000 </r>
       <r>    6.4446    1.0000 </r>
       <r>    6.4446    1.0000 </r>
       <r>    6.9150    1.0011 </r>
       <r>    6.9150    1.0011 </r>
       <r>    6.9150    1.0011 </r>
       <r>    7.5674   -0.0051 </r>
       <r>    7.5674   -0.0051 </r>
       <r>    7.5674   -0.0051 </r>
       <r>    9.8654    0.0000 </r>
       <r>    9.8654    0.0000 </r>
       <r>    9.8654    0.0000 </r>
      </set>
      <set comment="kpoint 38">
       <r>   -1.9217    1.0000 </r>
       <r>    0.9039    1.0000 </r>
       <r>    0.9594    1.0000 </r>
       <r>    0.9594    1.0000 </r>
       <r>    1.3305    1.0000 </r>
       <r>    1.3868    1.0000 </r>
       <r>    1.3868    1.0000 </r>
       <r>    3.4846    1.0000 </r>
       <r>    3.9043    1.0000 </r>
       <r>    3.9166    1.0000 </r>
       <r>    5.5427    1.0000 </r>
       <r>    5.7340    1.0000 </r>
       <r>    5.9078    1.0000 </r>
       <r>    5.9078    1.0000 </r>
       <r>    6.0829    1.0000 </r>
       <r>    6.7292    0.9985 </r>
       <r>    6.7430    0.9981 </r>
       <r>    6.7430    0.9981 </r>
       <r>    7.4865   -0.0390 </r>
       <r>    7.5366   -0.0158 </r>
       <r>    7.5366   -0.0158 </r>
       <r>    9.1263    0.0000 </r>
       <r>   10.5037    0.0000 </r>
       <r>   10.5037    0.0000 </r>
      </set>
      <set comment="kpoint 39">
       <r>   -1.6378    1.0000 </r>
       <r>    0.9845    1.0000 </r>
       <r>    1.1381    1.0000 </r>
       <r>    1.1381    1.0000 </r>
       <r>    1.4469    1.0000 </r>
       <r>    1.5838    1.0000 </r>
       <r>    1.5838    1.0000 </r>
       <r>    3.3362    1.0000 </r>
       <r>    4.0279    1.0000 </r>
       <r>    4.0403    1.0000 </r>
       <r>    5.3083    1.0000 </r>
       <r>    5.3083    1.0000 </r>
       <r>    5.3809    1.0000 </r>
       <r>    5.6001    1.0000 </r>
       <r>    5.8359    1.0000 </r>
       <r>    6.4763    1.0000 </r>
       <r>    6.5218    1.0000 </r>
       <r>    6.5218    1.0000 </r>
       <r>    7.3703    0.0105 </r>
       <r>    7.4993   -0.0330 </r>
       <r>    7.4993   -0.0330 </r>
       <r>    8.3554    0.0000 </r>
       <r>   11.2058    0.0000 </r>
       <r>   11.2058    0.0000 </r>
      </set>
      <set comment="kpoint 40">
       <r>   -1.2717    1.0000 </r>
       <r>    1.0454    1.0000 </r>
       <r>    1.3647    1.0000 </r>
       <r>    1.3647    1.0000 </r>
       <r>    1.5977    1.0000 </r>
       <r>    1.8319    1.0000 </r>
       <r>    1.8319    1.0000 </r>
       <r>    3.1441    1.0000 </r>
       <r>    4.1757    1.0000 </r>
       <r>    4.2040    1.0000 </r>
       <r>    4.7140    1.0000 </r>
       <r>    4.7140    1.0000 </r>
       <r>    5.0688    1.0000 </r>
       <r>    5.2152    1.0000 </r>
       <r>    5.9665    1.0000 </r>
       <r>    6.1788    1.0000 </r>
       <r>    6.2403    1.0000 </r>
       <r>    6.2403    1.0000 </r>
       <r>    7.2243    0.6306 </r>
       <r>    7.4700   -0.0458 </r>
       <r>    7.4700   -0.0458 </r>
       <r>    7.6369    0.0047 </r>
       <r>   11.8973    0.0000 </r>
       <r>   11.8973    0.0000 </r>
      </set>
      <set comment="kpoint 41">
       <r>   -0.8369    1.0000 </r>
       <r>    1.0340    1.0000 </r>
       <r>    1.6262    1.0000 </r>
       <r>    1.6262    1.0000 </r>
       <r>    1.7781    1.0000 </r>
       <r>    2.1123    1.0000 </r>
       <r>    2.1123    1.0000 </r>
       <r>    2.9232    1.0000 </r>
       <r>    4.1523    1.0000 </r>
       <r>    4.1523    1.0000 </r>
       <r>    4.2810    1.0000 </r>
       <r>    4.4063    1.0000 </r>
       <r>    4.5862    1.0000 </r>
       <r>    5.1302    1.0000 </r>
       <r>    5.8579    1.0000 </r>
       <r>    5.9300    1.0000 </r>
       <r>    5.9300    1.0000 </r>
       <r>    6.1215    1.0000 </r>
       <r>    6.9950    1.0310 </r>
       <r>    7.0551    1.0516 </r>
       <r>    7.4508   -0.0509 </r>
       <r>    7.4508   -0.0509 </r>
       <r>   12.5105    0.0000 </r>
       <r>   12.5105    0.0000 </r>
      </set>
      <set comment="kpoint 42">
       <r>   -0.3561    1.0000 </r>
       <r>    0.8861    1.0000 </r>
       <r>    1.8914    1.0000 </r>
       <r>    1.8914    1.0000 </r>
       <r>    1.9831    1.0000 </r>
       <r>    2.4003    1.0000 </r>
       <r>    2.4003    1.0000 </r>
       <r>    2.6862    1.0000 </r>
       <r>    3.6444    1.0000 </r>
       <r>    3.6444    1.0000 </r>
       <r>    4.2544    1.0000 </r>
       <r>    4.2566    1.0000 </r>
       <r>    4.6448    1.0000 </r>
       <r>    5.2420    1.0000 </r>
       <r>    5.5316    1.0000 </r>
       <r>    5.6490    1.0000 </r>
       <r>    5.6490    1.0000 </r>
       <r>    6.2957    1.0000 </r>
       <r>    6.4310    1.0000 </r>
       <r>    6.8701    0.9956 </r>
       <r>    7.4398   -0.0516 </r>
       <r>    7.4398   -0.0516 </r>
       <r>   12.9592    0.0000 </r>
       <r>   12.9592    0.0000 </r>
      </set>
      <set comment="kpoint 43">
       <r>    0.1334    1.0000 </r>
       <r>    0.5720    1.0000 </r>
       <r>    2.0810    1.0000 </r>
       <r>    2.0810    1.0000 </r>
       <r>    2.2072    1.0000 </r>
       <r>    2.4443    1.0000 </r>
       <r>    2.6662    1.0000 </r>
       <r>    2.6662    1.0000 </r>
       <r>    3.2399    1.0000 </r>
       <r>    3.2399    1.0000 </r>
       <r>    4.1253    1.0000 </r>
       <r>    4.1600    1.0000 </r>
       <r>    4.9159    1.0000 </r>
       <r>    5.2140    1.0000 </r>
       <r>    5.4753    1.0000 </r>
       <r>    5.4753    1.0000 </r>
       <r>    5.5367    1.0000 </r>
       <r>    5.9428    1.0000 </r>
       <r>    6.4831    1.0000 </r>
       <r>    6.6769    0.9994 </r>
       <r>    7.4348   -0.0513 </r>
       <r>    7.4348   -0.0513 </r>
       <r>   13.1766    0.0000 </r>
       <r>   13.1766    0.0000 </r>
      </set>
      <set comment="kpoint 44">
       <r>   -1.7349    1.0000 </r>
       <r>    1.0264    1.0000 </r>
       <r>    1.0264    1.0000 </r>
       <r>    1.0505    1.0000 </r>
       <r>    1.4653    1.0000 </r>
       <r>    1.4653    1.0000 </r>
       <r>    1.5388    1.0000 </r>
       <r>    3.4329    1.0000 </r>
       <r>    3.9511    1.0000 </r>
       <r>    3.9725    1.0000 </r>
       <r>    5.5255    1.0000 </r>
       <r>    5.5634    1.0000 </r>
       <r>    5.5634    1.0000 </r>
       <r>    5.5742    1.0000 </r>
       <r>    5.7291    1.0000 </r>
       <r>    6.5242    1.0000 </r>
       <r>    6.5660    1.0000 </r>
       <r>    6.5660    1.0000 </r>
       <r>    7.4707   -0.0455 </r>
       <r>    7.4707   -0.0455 </r>
       <r>    7.4839   -0.0402 </r>
       <r>    9.7234    0.0000 </r>
       <r>    9.7234    0.0000 </r>
       <r>   11.0346    0.0000 </r>
      </set>
      <set comment="kpoint 45">
       <r>   -1.4605    1.0000 </r>
       <r>    1.1053    1.0000 </r>
       <r>    1.1920    1.0000 </r>
       <r>    1.2037    1.0000 </r>
       <r>    1.5809    1.0000 </r>
       <r>    1.6615    1.0000 </r>
       <r>    1.7490    1.0000 </r>
       <r>    3.3212    1.0000 </r>
       <r>    4.0479    1.0000 </r>
       <r>    4.0608    1.0000 </r>
       <r>    4.9884    1.0000 </r>
       <r>    5.1155    1.0000 </r>
       <r>    5.1259    1.0000 </r>
       <r>    5.4107    1.0000 </r>
       <r>    5.8294    1.0000 </r>
       <r>    6.3088    1.0000 </r>
       <r>    6.3142    1.0000 </r>
       <r>    6.3954    1.0000 </r>
       <r>    7.3651    0.0216 </r>
       <r>    7.4099   -0.0417 </r>
       <r>    7.4140   -0.0443 </r>
       <r>    8.9139    0.0000 </r>
       <r>   10.3725    0.0000 </r>
       <r>   11.6569    0.0000 </r>
      </set>
      <set comment="kpoint 46">
       <r>   -1.1068    1.0000 </r>
       <r>    1.1639    1.0000 </r>
       <r>    1.3841    1.0000 </r>
       <r>    1.4289    1.0000 </r>
       <r>    1.7296    1.0000 </r>
       <r>    1.9074    1.0000 </r>
       <r>    1.9967    1.0000 </r>
       <r>    3.1588    1.0000 </r>
       <r>    4.1483    1.0000 </r>
       <r>    4.1995    1.0000 </r>
       <r>    4.4271    1.0000 </r>
       <r>    4.6118    1.0000 </r>
       <r>    4.6620    1.0000 </r>
       <r>    5.2870    1.0000 </r>
       <r>    5.9840    1.0000 </r>
       <r>    6.0185    1.0000 </r>
       <r>    6.0701    1.0000 </r>
       <r>    6.1738    1.0000 </r>
       <r>    7.2049    0.7258 </r>
       <r>    7.3463    0.0696 </r>
       <r>    7.3473    0.0669 </r>
       <r>    8.1672    0.0000 </r>
       <r>   11.0070    0.0000 </r>
       <r>   12.2845    0.0000 </r>
      </set>
      <set comment="kpoint 47">
       <r>   -0.6869    1.0000 </r>
       <r>    1.1495    1.0000 </r>
       <r>    1.6227    1.0000 </r>
       <r>    1.6922    1.0000 </r>
       <r>    1.9045    1.0000 </r>
       <r>    2.1782    1.0000 </r>
       <r>    2.2500    1.0000 </r>
       <r>    2.9627    1.0000 </r>
       <r>    3.9097    1.0000 </r>
       <r>    4.1167    1.0000 </r>
       <r>    4.1917    1.0000 </r>
       <r>    4.2567    1.0000 </r>
       <r>    4.3786    1.0000 </r>
       <r>    5.2540    1.0000 </r>
       <r>    5.7058    1.0000 </r>
       <r>    5.8103    1.0000 </r>
       <r>    5.9112    1.0000 </r>
       <r>    6.1711    1.0000 </r>
       <r>    6.9551    1.0131 </r>
       <r>    7.2967    0.2599 </r>
       <r>    7.2976    0.2556 </r>
       <r>    7.5509   -0.0103 </r>
       <r>   11.5841    0.0000 </r>
       <r>   12.8007    0.0000 </r>
      </set>
      <set comment="kpoint 48">
       <r>   -0.2220    1.0000 </r>
       <r>    0.9981    1.0000 </r>
       <r>    1.8948    1.0000 </r>
       <r>    1.9715    1.0000 </r>
       <r>    2.0987    1.0000 </r>
       <r>    2.4250    1.0000 </r>
       <r>    2.4557    1.0000 </r>
       <r>    2.7478    1.0000 </r>
       <r>    3.4747    1.0000 </r>
       <r>    3.6711    1.0000 </r>
       <r>    4.0006    1.0000 </r>
       <r>    4.1281    1.0000 </r>
       <r>    4.5886    1.0000 </r>
       <r>    5.3955    1.0000 </r>
       <r>    5.3965    1.0000 </r>
       <r>    5.5755    1.0000 </r>
       <r>    5.6535    1.0000 </r>
       <r>    6.3812    1.0000 </r>
       <r>    6.5624    1.0000 </r>
       <r>    7.1348    0.9754 </r>
       <r>    7.2652    0.4161 </r>
       <r>    7.2666    0.4085 </r>
       <r>   12.0732    0.0000 </r>
       <r>   12.9462    0.0000 </r>
      </set>
      <set comment="kpoint 49">
       <r>    0.2534    1.0000 </r>
       <r>    0.6841    1.0000 </r>
       <r>    2.1500    1.0000 </r>
       <r>    2.1930    1.0000 </r>
       <r>    2.3075    1.0000 </r>
       <r>    2.5262    1.0000 </r>
       <r>    2.5475    1.0000 </r>
       <r>    2.5495    1.0000 </r>
       <r>    3.2351    1.0000 </r>
       <r>    3.3361    1.0000 </r>
       <r>    3.9332    1.0000 </r>
       <r>    4.0072    1.0000 </r>
       <r>    4.8299    1.0000 </r>
       <r>    5.1006    1.0000 </r>
       <r>    5.4427    1.0000 </r>
       <r>    5.4732    1.0000 </r>
       <r>    5.6996    1.0000 </r>
       <r>    6.1069    1.0000 </r>
       <r>    6.6082    0.9999 </r>
       <r>    6.8518    0.9951 </r>
       <r>    7.2509    0.4911 </r>
       <r>    7.2516    0.4876 </r>
       <r>   12.4620    0.0000 </r>
       <r>   12.7596    0.0000 </r>
      </set>
      <set comment="kpoint 50">
       <r>   -1.2005    1.0000 </r>
       <r>    1.2792    1.0000 </r>
       <r>    1.2792    1.0000 </r>
       <r>    1.2918    1.0000 </r>
       <r>    1.7768    1.0000 </r>
       <r>    1.7768    1.0000 </r>
       <r>    1.9635    1.0000 </r>
       <r>    3.2644    1.0000 </r>
       <r>    4.0937    1.0000 </r>
       <r>    4.1106    1.0000 </r>
       <r>    4.6002    1.0000 </r>
       <r>    4.6002    1.0000 </r>
       <r>    4.8165    1.0000 </r>
       <r>    5.3724    1.0000 </r>
       <r>    5.9153    1.0000 </r>
       <r>    6.0829    1.0000 </r>
       <r>    6.1778    1.0000 </r>
       <r>    6.1778    1.0000 </r>
       <r>    7.2856    0.3124 </r>
       <r>    7.2856    0.3124 </r>
       <r>    7.3122    0.1915 </r>
       <r>    9.5271    0.0000 </r>
       <r>    9.5271    0.0000 </r>
       <r>   12.2029    0.0000 </r>
      </set>
      <set comment="kpoint 51">
       <r>   -0.8658    1.0000 </r>
       <r>    1.3319    1.0000 </r>
       <r>    1.4415    1.0000 </r>
       <r>    1.4990    1.0000 </r>
       <r>    1.9245    1.0000 </r>
       <r>    2.0223    1.0000 </r>
       <r>    2.2012    1.0000 </r>
       <r>    3.1560    1.0000 </r>
       <r>    4.0904    1.0000 </r>
       <r>    4.1255    1.0000 </r>
       <r>    4.2072    1.0000 </r>
       <r>    4.2217    1.0000 </r>
       <r>    4.4441    1.0000 </r>
       <r>    5.3001    1.0000 </r>
       <r>    5.8612    1.0000 </r>
       <r>    5.8989    1.0000 </r>
       <r>    6.0118    1.0000 </r>
       <r>    6.0927    1.0000 </r>
       <r>    7.1059    1.0252 </r>
[...]
       <r>    7.8653    0.0002 </r>
       <r>    8.4016    0.0000 </r>
       <r>    8.4016    0.0000 </r>
       <r>    8.8459    0.0000 </r>
      </set>
      <set comment="kpoint 117">
       <r>    0.3531    1.0000 </r>
       <r>    0.6311    1.0000 </r>
       <r>    0.6311    1.0000 </r>
       <r>    0.6311    1.0000 </r>
       <r>    3.4563    1.0000 </r>
       <r>    3.4563    1.0000 </r>
       <r>    3.4563    1.0000 </r>
       <r>    3.7413    1.0000 </r>
       <r>    3.7413    1.0000 </r>
       <r>    3.8919    1.0000 </r>
       <r>    3.8919    1.0000 </r>
       <r>    3.8919    1.0000 </r>
       <r>    5.4429    1.0000 </r>
       <r>    5.4429    1.0000 </r>
       <r>    5.4429    1.0000 </r>
       <r>    5.6687    1.0000 </r>
       <r>    6.9951    1.0310 </r>
       <r>    6.9951    1.0310 </r>
       <r>    7.3045    0.2242 </r>
       <r>    7.3045    0.2242 </r>
       <r>    7.3045    0.2242 </r>
       <r>    8.7643    0.0000 </r>
       <r>    8.7643    0.0000 </r>
       <r>    8.7643    0.0000 </r>
      </set>
      <set comment="kpoint 118">
       <r>    0.3942    1.0000 </r>
       <r>    0.4873    1.0000 </r>
       <r>    0.5760    1.0000 </r>
       <r>    0.5760    1.0000 </r>
       <r>    3.4943    1.0000 </r>
       <r>    3.4943    1.0000 </r>
       <r>    3.5817    1.0000 </r>
       <r>    3.6785    1.0000 </r>
       <r>    3.7395    1.0000 </r>
       <r>    3.7903    1.0000 </r>
       <r>    3.8276    1.0000 </r>
       <r>    3.8276    1.0000 </r>
       <r>    5.7286    1.0000 </r>
       <r>    5.7286    1.0000 </r>
       <r>    5.7344    1.0000 </r>
       <r>    5.8899    1.0000 </r>
       <r>    7.1759    0.8502 </r>
       <r>    7.2603    0.4415 </r>
       <r>    7.2603    0.4415 </r>
       <r>    7.2636    0.4246 </r>
       <r>    7.2815    0.3331 </r>
       <r>    7.9396    0.0000 </r>
       <r>    8.7306    0.0000 </r>
       <r>    8.7306    0.0000 </r>
      </set>
      <set comment="kpoint 119">
       <r>    0.3983    1.0000 </r>
       <r>    0.4591    1.0000 </r>
       <r>    0.4591    1.0000 </r>
       <r>    0.4887    1.0000 </r>
       <r>    3.5652    1.0000 </r>
       <r>    3.5947    1.0000 </r>
       <r>    3.5947    1.0000 </r>
       <r>    3.6645    1.0000 </r>
       <r>    3.7012    1.0000 </r>
       <r>    3.7381    1.0000 </r>
       <r>    3.7381    1.0000 </r>
       <r>    3.7504    1.0000 </r>
       <r>    6.0623    1.0000 </r>
       <r>    6.0881    1.0000 </r>
       <r>    6.0881    1.0000 </r>
       <r>    6.2370    1.0000 </r>
       <r>    7.1313    0.9831 </r>
       <r>    7.2344    0.5782 </r>
       <r>    7.2344    0.5782 </r>
       <r>    7.2379    0.5597 </r>
       <r>    7.5341   -0.0169 </r>
       <r>    8.0564    0.0000 </r>
       <r>    8.0564    0.0000 </r>
       <r>    8.3461    0.0000 </r>
      </set>
      <set comment="kpoint 120">
       <r>    0.3684    1.0000 </r>
       <r>    0.3987    1.0000 </r>
       <r>    0.3987    1.0000 </r>
       <r>    0.3987    1.0000 </r>
       <r>    3.6310    1.0000 </r>
       <r>    3.6310    1.0000 </r>
       <r>    3.6310    1.0000 </r>
       <r>    3.6647    1.0000 </r>
       <r>    3.6647    1.0000 </r>
       <r>    3.6813    1.0000 </r>
       <r>    3.6813    1.0000 </r>
       <r>    3.6813    1.0000 </r>
       <r>    6.5602    1.0000 </r>
       <r>    6.5602    1.0000 </r>
       <r>    6.5602    1.0000 </r>
       <r>    6.8159    0.9956 </r>
       <r>    7.2513    0.4889 </r>
       <r>    7.2513    0.4889 </r>
       <r>    7.2877    0.3021 </r>
       <r>    7.2877    0.3021 </r>
       <r>    7.2877    0.3021 </r>
       <r>    7.7303    0.0027 </r>
       <r>    7.7303    0.0027 </r>
       <r>    7.7303    0.0027 </r>
      </set>
     </set>
    </set>
   </array>
  </eigenvalues>
  <separator name="orbital magnetization" >
   <v name="MAGDIPOLOUT">      0.00000000      0.00000000      0.00000000</v>
  </separator>
  <dos>
   <i name="efermi">      7.24925215 </i>
   <total>
    <array>
     <dimension dim="1">gridpoints</dimension>
     <dimension dim="2">spin</dimension>
     <field>energy</field>
     <field>total</field>
     <field>integrated</field>
     <set>
      <set comment="spin 1">
       <r>    -4.4127     0.0000     0.0000 </r>
       <r>    -4.3449     0.0000     0.0000 </r>
       <r>    -4.2771     0.0000     0.0000 </r>
       <r>    -4.2093     0.0000     0.0000 </r>
       <r>    -4.1415     0.0000     0.0000 </r>
       <r>    -4.0737     0.0000     0.0000 </r>
       <r>    -4.0058     0.0000     0.0000 </r>
       <r>    -3.9380     0.0000     0.0000 </r>
       <r>    -3.8702     0.0000     0.0000 </r>
       <r>    -3.8024     0.0000     0.0000 </r>
       <r>    -3.7346     0.0000     0.0000 </r>
       <r>    -3.6668     0.0000     0.0000 </r>
       <r>    -3.5990     0.0000     0.0000 </r>
       <r>    -3.5311     0.0000     0.0000 </r>
       <r>    -3.4633     0.0000     0.0000 </r>
       <r>    -3.3955     0.0000     0.0000 </r>
       <r>    -3.3277     0.0000     0.0000 </r>
       <r>    -3.2599     0.0000     0.0000 </r>
       <r>    -3.1921     0.0000     0.0000 </r>
       <r>    -3.1243     0.0000     0.0000 </r>
       <r>    -3.0564     0.0000     0.0000 </r>
       <r>    -2.9886     0.0000     0.0000 </r>
       <r>    -2.9208     0.0001     0.0000 </r>
       <r>    -2.8530     0.0003     0.0000 </r>
       <r>    -2.7852     0.0004     0.0001 </r>
       <r>    -2.7174    -0.0001     0.0000 </r>
       <r>    -2.6496    -0.0020    -0.0001 </r>
       <r>    -2.5817    -0.0039    -0.0003 </r>
       <r>    -2.5139    -0.0001    -0.0004 </r>
       <r>    -2.4461     0.0165     0.0008 </r>
       <r>    -2.3783     0.0469     0.0039 </r>
       <r>    -2.3105     0.0814     0.0095 </r>
       <r>    -2.2427     0.1102     0.0169 </r>
       <r>    -2.1749     0.1352     0.0261 </r>
       <r>    -2.1070     0.1616     0.0371 </r>
       <r>    -2.0392     0.1814     0.0494 </r>
       <r>    -1.9714     0.1847     0.0619 </r>
       <r>    -1.9036     0.1877     0.0746 </r>
       <r>    -1.8358     0.2163     0.0893 </r>
       <r>    -1.7680     0.2584     0.1068 </r>
       <r>    -1.7002     0.2729     0.1253 </r>
       <r>    -1.6323     0.2560     0.1427 </r>
       <r>    -1.5645     0.2502     0.1596 </r>
       <r>    -1.4967     0.2769     0.1784 </r>
       <r>    -1.4289     0.3133     0.1997 </r>
       <r>    -1.3611     0.3415     0.2228 </r>
       <r>    -1.2933     0.3647     0.2475 </r>
       <r>    -1.2255     0.3753     0.2730 </r>
       <r>    -1.1576     0.3561     0.2971 </r>
       <r>    -1.0898     0.3264     0.3193 </r>
       <r>    -1.0220     0.3424     0.3425 </r>
       <r>    -0.9542     0.4234     0.3712 </r>
       <r>    -0.8864     0.5083     0.4057 </r>
       <r>    -0.8186     0.5242     0.4412 </r>
       <r>    -0.7508     0.4702     0.4731 </r>
       <r>    -0.6829     0.4114     0.5010 </r>
       <r>    -0.6151     0.4216     0.5296 </r>
       <r>    -0.5473     0.5143     0.5645 </r>
       <r>    -0.4795     0.6111     0.6059 </r>
       <r>    -0.4117     0.6291     0.6486 </r>
       <r>    -0.3439     0.5969     0.6891 </r>
       <r>    -0.2761     0.6065     0.7302 </r>
       <r>    -0.2082     0.6698     0.7756 </r>
       <r>    -0.1404     0.7162     0.8242 </r>
       <r>    -0.0726     0.7115     0.8724 </r>
       <r>    -0.0048     0.7061     0.9203 </r>
       <r>     0.0630     0.7741     0.9728 </r>
       <r>     0.1308     0.9242     1.0355 </r>
       <r>     0.1986     1.0665     1.1078 </r>
       <r>     0.2665     1.1449     1.1855 </r>
       <r>     0.3343     1.2879     1.2728 </r>
       <r>     0.4021     1.6463     1.3844 </r>
       <r>     0.4699     2.0993     1.5268 </r>
       <r>     0.5377     2.3667     1.6873 </r>
       <r>     0.6055     2.3975     1.8499 </r>
       <r>     0.6733     2.4326     2.0148 </r>
       <r>     0.7412     2.6962     2.1977 </r>
       <r>     0.8090     3.1657     2.4124 </r>
       <r>     0.8768     3.6235     2.6581 </r>
       <r>     0.9446     3.9068     2.9230 </r>
       <r>     1.0124     4.1204     3.2024 </r>
       <r>     1.0802     4.4652     3.5052 </r>
       <r>     1.1480     4.9086     3.8381 </r>
       <r>     1.2159     5.3140     4.1985 </r>
       <r>     1.2837     5.7061     4.5854 </r>
       <r>     1.3515     6.0459     4.9954 </r>
       <r>     1.4193     6.1187     5.4104 </r>
       <r>     1.4871     5.9487     5.8138 </r>
       <r>     1.5549     5.8334     6.2094 </r>
       <r>     1.6227     5.8116     6.6035 </r>
       <r>     1.6906     5.6379     6.9858 </r>
       <r>     1.7584     5.3406     7.3480 </r>
       <r>     1.8262     5.2407     7.7034 </r>
       <r>     1.8940     5.3660     8.0673 </r>
       <r>     1.9618     5.3861     8.4325 </r>
       <r>     2.0296     5.1629     8.7826 </r>
       <r>     2.0974     4.8560     9.1119 </r>
       <r>     2.1653     4.5008     9.4172 </r>
       <r>     2.2331     4.0172     9.6896 </r>
       <r>     2.3009     3.6274     9.9356 </r>
       <r>     2.3687     3.7187    10.1878 </r>
       <r>     2.4365     4.2626    10.4768 </r>
       <r>     2.5043     4.8344    10.8047 </r>
       <r>     2.5721     5.1783    11.1558 </r>
       <r>     2.6400     5.3705    11.5200 </r>
       <r>     2.7078     5.5364    11.8955 </r>
       <r>     2.7756     5.7043    12.2823 </r>
       <r>     2.8434     5.8349    12.6780 </r>
       <r>     2.9112     5.8664    13.0758 </r>
       <r>     2.9790     5.7965    13.4689 </r>
       <r>     3.0468     5.7371    13.8580 </r>
       <r>     3.1147     5.8481    14.2545 </r>
       <r>     3.1825     6.1731    14.6732 </r>
       <r>     3.2503     6.5118    15.1148 </r>
       <r>     3.3181     6.5851    15.5613 </r>
       <r>     3.3859     6.4057    15.9957 </r>
       <r>     3.4537     6.2737    16.4212 </r>
       <r>     3.5215     6.3888    16.8544 </r>
       <r>     3.5894     6.7664    17.3133 </r>
       <r>     3.6572     7.3630    17.8126 </r>
       <r>     3.7250     7.9441    18.3513 </r>
       <r>     3.7928     8.1888    18.9066 </r>
       <r>     3.8606     8.2175    19.4639 </r>
       <r>     3.9284     8.5665    20.0448 </r>
       <r>     3.9962     9.4004    20.6823 </r>
       <r>     4.0641    10.1500    21.3706 </r>
       <r>     4.1319    10.1229    22.0571 </r>
       <r>     4.1997     9.2027    22.6812 </r>
       <r>     4.2675     7.8273    23.2120 </r>
       <r>     4.3353     6.5423    23.6556 </r>
       <r>     4.4031     5.6831    24.0410 </r>
       <r>     4.4709     5.2582    24.3976 </r>
       <r>     4.5388     5.0581    24.7406 </r>
       <r>     4.6066     4.9470    25.0761 </r>
       <r>     4.6744     4.9513    25.4118 </r>
       <r>     4.7422     5.0232    25.7525 </r>
       <r>     4.8100     4.9568    26.0886 </r>
       <r>     4.8778     4.7114    26.4081 </r>
       <r>     4.9456     4.5857    26.7191 </r>
       <r>     5.0135     4.7998    27.0446 </r>
       <r>     5.0813     5.1522    27.3940 </r>
       <r>     5.1491     5.4024    27.7603 </r>
       <r>     5.2169     5.6760    28.1453 </r>
       <r>     5.2847     6.1438    28.5619 </r>
       <r>     5.3525     6.6260    29.0112 </r>
       <r>     5.4203     6.8119    29.4732 </r>
       <r>     5.4881     6.6475    29.9240 </r>
       <r>     5.5560     6.3588    30.3552 </r>
       <r>     5.6238     6.1552    30.7726 </r>
       <r>     5.6916     5.9422    31.1756 </r>
       <r>     5.7594     5.4963    31.5483 </r>
       <r>     5.8272     4.9489    31.8839 </r>
       <r>     5.8950     4.7512    32.2061 </r>
       <r>     5.9628     5.0454    32.5483 </r>
       <r>     6.0307     5.3861    32.9135 </r>
       <r>     6.0985     5.2554    33.2699 </r>
       <r>     6.1663     4.7231    33.5902 </r>
       <r>     6.2341     4.3737    33.8868 </r>
       <r>     6.3019     4.5161    34.1930 </r>
       <r>     6.3697     4.8150    34.5196 </r>
       <r>     6.4375     4.8986    34.8518 </r>
       <r>     6.5054     4.8550    35.1810 </r>
       <r>     6.5732     4.8856    35.5123 </r>
       <r>     6.6410     4.9386    35.8472 </r>
       <r>     6.7088     4.9361    36.1820 </r>
       <r>     6.7766     5.0198    36.5224 </r>
       <r>     6.8444     5.3610    36.8859 </r>
       <r>     6.9122     5.9600    37.2901 </r>
       <r>     6.9801     6.7278    37.7463 </r>
       <r>     7.0479     7.5543    38.2586 </r>
       <r>     7.1157     8.2904    38.8208 </r>
       <r>     7.1835     8.7931    39.4171 </r>
       <r>     7.2513     8.8597    40.0179 </r>
       <r>     7.3191     8.1945    40.5736 </r>
       <r>     7.3869     6.8367    41.0373 </r>
       <r>     7.4548     5.4443    41.4065 </r>
       <r>     7.5226     4.6374    41.7210 </r>
       <r>     7.5904     4.2476    42.0090 </r>
       <r>     7.6582     3.6368    42.2556 </r>
       <r>     7.7260     2.5397    42.4279 </r>
       <r>     7.7938     1.3072    42.5165 </r>
       <r>     7.8616     0.5036    42.5507 </r>
       <r>     7.9295     0.4587    42.5818 </r>
       <r>     7.9973     1.0690    42.6543 </r>
       <r>     8.0651     1.8129    42.7772 </r>
       <r>     8.1329     2.0556    42.9166 </r>
       <r>     8.2007     1.5967    43.0249 </r>
       <r>     8.2685     0.8623    43.0834 </r>
       <r>     8.3363     0.4191    43.1118 </r>
       <r>     8.4042     0.4538    43.1425 </r>
       <r>     8.4720     0.8048    43.1971 </r>
       <r>     8.5398     1.2376    43.2811 </r>
       <r>     8.6076     1.5479    43.3860 </r>
       <r>     8.6754     1.5942    43.4941 </r>
       <r>     8.7432     1.3912    43.5885 </r>
       <r>     8.8110     1.1201    43.6644 </r>
       <r>     8.8789     0.9782    43.7308 </r>
       <r>     8.9467     1.0206    43.8000 </r>
       <r>     9.0145     1.1336    43.8769 </r>
       <r>     9.0823     1.1478    43.9547 </r>
       <r>     9.1501     1.0172    44.0237 </r>
       <r>     9.2179     0.8896    44.0840 </r>
       <r>     9.2857     0.9461    44.1482 </r>
       <r>     9.3536     1.1840    44.2285 </r>
       <r>     9.4214     1.4104    44.3241 </r>
       <r>     9.4892     1.4242    44.4207 </r>
       <r>     9.5570     1.2047    44.5024 </r>
       <r>     9.6248     0.9625    44.5677 </r>
       <r>     9.6926     0.9342    44.6310 </r>
       <r>     9.7604     1.0950    44.7053 </r>
       <r>     9.8283     1.2142    44.7876 </r>
       <r>     9.8961     1.1820    44.8678 </r>
       <r>     9.9639     1.1002    44.9424 </r>
       <r>    10.0317     1.0882    45.0162 </r>
       <r>    10.0995     1.1476    45.0940 </r>
       <r>    10.1673     1.1729    45.1735 </r>
       <r>    10.2351     1.0698    45.2461 </r>
       <r>    10.3030     0.9106    45.3078 </r>
       <r>    10.3708     0.8760    45.3672 </r>
       <r>    10.4386     0.9986    45.4349 </r>
       <r>    10.5064     1.1291    45.5115 </r>
       <r>    10.5742     1.1798    45.5915 </r>
       <r>    10.6420     1.2016    45.6730 </r>
       <r>    10.7098     1.1968    45.7542 </r>
       <r>    10.7777     1.0821    45.8276 </r>
       <r>    10.8455     0.8980    45.8885 </r>
       <r>    10.9133     0.8321    45.9449 </r>
       <r>    10.9811     0.9597    46.0100 </r>
       <r>    11.0489     1.1421    46.0874 </r>
       <r>    11.1167     1.2087    46.1694 </r>
       <r>    11.1845     1.0946    46.2436 </r>
       <r>    11.2524     0.8530    46.3015 </r>
       <r>    11.3202     0.6519    46.3457 </r>
       <r>    11.3880     0.6612    46.3905 </r>
       <r>    11.4558     0.8666    46.4493 </r>
       <r>    11.5236     1.0820    46.5226 </r>
       <r>    11.5914     1.1508    46.6007 </r>
       <r>    11.6592     1.0714    46.6733 </r>
       <r>    11.7271     0.9682    46.7390 </r>
       <r>    11.7949     0.9631    46.8043 </r>
       <r>    11.8627     1.0224    46.8736 </r>
       <r>    11.9305     0.9783    46.9400 </r>
       <r>    11.9983     0.7646    46.9918 </r>
       <r>    12.0661     0.5244    47.0274 </r>
       <r>    12.1339     0.4469    47.0577 </r>
       <r>    12.2018     0.6151    47.0994 </r>
       <r>    12.2696     0.9528    47.1640 </r>
       <r>    12.3374     1.2104    47.2461 </r>
       <r>    12.4052     1.1535    47.3243 </r>
       <r>    12.4730     0.8555    47.3823 </r>
       <r>    12.5408     0.6332    47.4253 </r>
       <r>    12.6086     0.6576    47.4699 </r>
       <r>    12.6765     0.7885    47.5233 </r>
       <r>    12.7443     0.8148    47.5786 </r>
       <r>    12.8121     0.7194    47.6274 </r>
       <r>    12.8799     0.6342    47.6704 </r>
       <r>    12.9477     0.6114    47.7119 </r>
       <r>    13.0155     0.5829    47.7514 </r>
       <r>    13.0833     0.5286    47.7872 </r>
       <r>    13.1512     0.5001    47.8211 </r>
       <r>    13.2190     0.4808    47.8538 </r>
       <r>    13.2868     0.4081    47.8814 </r>
       <r>    13.3546     0.3014    47.9019 </r>
       <r>    13.4224     0.2233    47.9170 </r>
       <r>    13.4902     0.1819    47.9294 </r>
       <r>    13.5580     0.1522    47.9397 </r>
       <r>    13.6259     0.1276    47.9483 </r>
       <r>    13.6937     0.1175    47.9563 </r>
       <r>    13.7615     0.1252    47.9648 </r>
       <r>    13.8293     0.1411    47.9744 </r>
       <r>    13.8971     0.1489    47.9845 </r>
       <r>    13.9649     0.1316    47.9934 </r>
       <r>    14.0327     0.0843    47.9991 </r>
       <r>    14.1006     0.0291    48.0011 </r>
       <r>    14.1684    -0.0040    48.0008 </r>
       <r>    14.2362    -0.0096    48.0001 </r>
       <r>    14.3040    -0.0039    47.9999 </r>
       <r>    14.3718     0.0002    47.9999 </r>
       <r>    14.4396     0.0009    48.0000 </r>
       <r>    14.5074     0.0005    48.0000 </r>
       <r>    14.5753     0.0001    48.0000 </r>
       <r>    14.6431     0.0000    48.0000 </r>
       <r>    14.7109     0.0000    48.0000 </r>
       <r>    14.7787     0.0000    48.0000 </r>
       <r>    14.8465     0.0000    48.0000 </r>
       <r>    14.9143     0.0000    48.0000 </r>
       <r>    14.9821     0.0000    48.0000 </r>
       <r>    15.0500     0.0000    48.0000 </r>
       <r>    15.1178     0.0000    48.0000 </r>
       <r>    15.1856     0.0000    48.0000 </r>
       <r>    15.2534     0.0000    48.0000 </r>
       <r>    15.3212     0.0000    48.0000 </r>
       <r>    15.3890     0.0000    48.0000 </r>
       <r>    15.4568     0.0000    48.0000 </r>
       <r>    15.5247     0.0000    48.0000 </r>
       <r>    15.5925     0.0000    48.0000 </r>
       <r>    15.6603     0.0000    48.0000 </r>
       <r>    15.7281     0.0000    48.0000 </r>
       <r>    15.7959     0.0000    48.0000 </r>
       <r>    15.8637     0.0000    48.0000 </r>
       <r>    15.9315     0.0000    48.0000 </r>
      </set>
     </set>
    </array>
   </total>
  </dos>
 </calculation>
 <structure name="finalpos" >
  <crystal>
   <varray name="basis" >
    <v>       3.98000000       0.00000000       0.00000000 </v>
    <v>       0.00000000       3.98000000       0.00000000 </v>
    <v>       0.00000000       0.00000000       3.98000000 </v>
   </varray>
   <i name="volume">     63.04479200 </i>
   <varray name="rec_basis" >
    <v>       0.25125628       0.00000000       0.00000000 </v>
    <v>       0.00000000       0.25125628       0.00000000 </v>
    <v>       0.00000000       0.00000000       0.25125628 </v>
   </varray>
  </crystal>
  <varray name="positions" >
   <v>       0.00000000       0.00000000       0.00000000 </v>
   <v>       0.00000000       0.50000000       0.50000000 </v>
   <v>       0.50000000       0.00000000       0.50000000 </v>
   <v>       0.50000000       0.50000000       0.00000000 </v>
  </varray>
 </structure>
</modeling>
