This job started on
Tue Jan 22 15:09:48 CET 2019
 running on   16 total cores
 distrk:  each k-point on   16 cores,    1 groups
 distr:  one band on    8 cores,    2 groups
 using from now: INCAR     
 vasp.5.4.4.18Apr17-6-g9f103f2a35 (build Apr 17 2018 18:25:23) complex          
  
 POSCAR found :  1 types and       4 ions

 ----------------------------------------------------------------------------- 
|                                                                             |
|  ADVICE TO THIS USER RUNNING 'VASP/VAMP'   (HEAR YOUR MASTER'S VOICE ...):  |
|                                                                             |
|      You enforced a specific xc-type in the INCAR file,                     |
|      a different type was found on the POTCAR file                          |
|          I HOPE YOU KNOW, WHAT YOU ARE  DOING                               |
|                                                                             |
 ----------------------------------------------------------------------------- 

 LDA part: xc-table for Ceperly-Alder, standard interpolation
 POSCAR found :  1 types and       4 ions
 POSCAR, INCAR and KPOINTS ok, starting setup
 FFT: planning ...
 WAVECAR not read
 entering main loop
       N       E                     dE             d eps       ncg     rms          rms(c)
DAV:   1     0.445147510528E+03    0.44515E+03   -0.17288E+04 10600   0.151E+03
DAV:   2     0.314091750253E+01   -0.44201E+03   -0.42941E+03 10600   0.522E+02
DAV:   3    -0.251044083460E+02   -0.28245E+02   -0.27445E+02 14520   0.121E+02
DAV:   4    -0.259420087897E+02   -0.83760E+00   -0.83026E+00 11272   0.270E+01
DAV:   5    -0.259651411737E+02   -0.23132E-01   -0.23122E-01 12976   0.297E+00    0.768E+00
DAV:   6    -0.244818237780E+02    0.14833E+01   -0.34778E+00 12752   0.209E+01    0.227E+00
DAV:   7    -0.243357246564E+02    0.14610E+00   -0.46480E-01 15904   0.688E+00    0.534E-01
DAV:   8    -0.243197090113E+02    0.16016E-01   -0.19420E-02 11024   0.177E+00    0.105E-01
DAV:   9    -0.243193644205E+02    0.34459E-03   -0.18611E-03 13840   0.476E-01    0.228E-02
DAV:  10    -0.243193845096E+02   -0.20089E-04   -0.46505E-05 11800   0.386E-02    0.362E-03
DAV:  11    -0.243193871585E+02   -0.26489E-05   -0.13729E-06  8520   0.115E-02    0.797E-04
DAV:  12    -0.243193870175E+02    0.14095E-06   -0.25891E-07  5880   0.428E-03
   1 F= -.24319387E+02 E0= -.24318153E+02  d E =-.243194E+02
 curvature:   0.00 expect dE= 0.000E+00 dE for cont linesearch  0.000E+00
 trial: gam= 0.00000 g(F)=  0.710E-62 g(S)=  0.000E+00 ort = 0.000E+00 (trialstep = 0.100E+01)
 search vector abs. value=  0.100E-09
 reached required accuracy - stopping structural energy minimisation
 writing wavefunctions
This job finished on
Tue Jan 22 15:10:21 CET 2019
