<?xml version="1.0" encoding="ISO-8859-1"?>
<modeling>
 <generator>
  <i name="program" type="string">vasp </i>
  <i name="version" type="string">5.4.4.18Apr17-6-g9f103f2a35  </i>
  <i name="subversion" type="string">(build Apr 17 2018 18:25:23) complex            parallel </i>
  <i name="platform" type="string">LinuxIFC </i>
  <i name="date" type="string">2019 01 22 </i>
  <i name="time" type="string">15:09:49 </i>
 </generator>
 <incar>
  <i type="string" name="SYSTEM"> Pt bulk calculation</i>
  <i type="int" name="ISTART">     0</i>
  <i type="string" name="PREC">normal</i>
  <i type="string" name="ALGO"> NORMAL</i>
  <i type="int" name="ICHARG">     2</i>
  <i type="int" name="INIWAV">     1</i>
  <i type="int" name="NELMIN">    10</i>
  <i type="int" name="IBRION">     2</i>
  <i name="EDIFF">      0.00000100</i>
  <i name="EDIFFG">     -0.02000000</i>
  <i type="int" name="NSW">    10</i>
  <i name="ENCUT">    450.00000000</i>
  <i name="POTIM">      0.20000000</i>
  <i type="int" name="ISMEAR">     2</i>
  <i name="SIGMA">      0.20000000</i>
  <v type="int" name="KPOINT_BSE">    -1     0     0     0</v>
  <i type="string" name="GGA"> 91</i>
 </incar>
 <structure name="primitive_cell" >
  <crystal>
   <varray name="basis" >
    <v>       1.96500000       1.96500000      -0.00000000 </v>
    <v>       1.96500000       0.00000000      -1.96500000 </v>
    <v>       0.00000000       1.96500000      -1.96500000 </v>
   </varray>
   <i name="volume">     15.17461425 </i>
   <varray name="rec_basis" >
    <v>       0.25445293       0.25445293       0.25445293 </v>
    <v>       0.25445293      -0.25445293      -0.25445293 </v>
    <v>      -0.25445293       0.25445293      -0.25445293 </v>
   </varray>
  </crystal>
  <varray name="positions" >
   <v>       0.00000000       0.00000000       0.00000000 </v>
  </varray>
 </structure>
 <varray name="primitive_index" >
  <v type="int" >        1 </v>
 </varray>
 <kpoints>
  <generation param="Monkhorst-Pack">
   <v type="int" name="divisions">      20       20       20 </v>
   <v name="usershift">      0.00000000       0.00000000       0.00000000 </v>
   <v name="genvec1">      0.05000000       0.00000000       0.00000000 </v>
   <v name="genvec2">      0.00000000       0.05000000       0.00000000 </v>
   <v name="genvec3">      0.00000000       0.00000000       0.05000000 </v>
   <v name="shift">      0.50000000       0.50000000       0.50000000 </v>
  </generation>
  <varray name="kpointlist" >
   <v>       0.02500000       0.02500000       0.02500000 </v>
   <v>       0.07500000       0.02500000       0.02500000 </v>
   <v>       0.12500000       0.02500000       0.02500000 </v>
   <v>       0.17500000       0.02500000       0.02500000 </v>
   <v>       0.22500000       0.02500000       0.02500000 </v>
   <v>       0.27500000       0.02500000       0.02500000 </v>
   <v>       0.32500000       0.02500000       0.02500000 </v>
   <v>       0.37500000       0.02500000       0.02500000 </v>
   <v>       0.42500000       0.02500000       0.02500000 </v>
   <v>       0.47500000       0.02500000       0.02500000 </v>
   <v>       0.07500000       0.07500000       0.02500000 </v>
   <v>       0.12500000       0.07500000       0.02500000 </v>
   <v>       0.17500000       0.07500000       0.02500000 </v>
   <v>       0.22500000       0.07500000       0.02500000 </v>
   <v>       0.27500000       0.07500000       0.02500000 </v>
   <v>       0.32500000       0.07500000       0.02500000 </v>
   <v>       0.37500000       0.07500000       0.02500000 </v>
   <v>       0.42500000       0.07500000       0.02500000 </v>
   <v>       0.47500000       0.07500000       0.02500000 </v>
   <v>       0.12500000       0.12500000       0.02500000 </v>
   <v>       0.17500000       0.12500000       0.02500000 </v>
   <v>       0.22500000       0.12500000       0.02500000 </v>
   <v>       0.27500000       0.12500000       0.02500000 </v>
   <v>       0.32500000       0.12500000       0.02500000 </v>
   <v>       0.37500000       0.12500000       0.02500000 </v>
   <v>       0.42500000       0.12500000       0.02500000 </v>
   <v>       0.47500000       0.12500000       0.02500000 </v>
   <v>       0.17500000       0.17500000       0.02500000 </v>
   <v>       0.22500000       0.17500000       0.02500000 </v>
   <v>       0.27500000       0.17500000       0.02500000 </v>
   <v>       0.32500000       0.17500000       0.02500000 </v>
   <v>       0.37500000       0.17500000       0.02500000 </v>
   <v>       0.42500000       0.17500000       0.02500000 </v>
   <v>       0.47500000       0.17500000       0.02500000 </v>
   <v>       0.22500000       0.22500000       0.02500000 </v>
   <v>       0.27500000       0.22500000       0.02500000 </v>
   <v>       0.32500000       0.22500000       0.02500000 </v>
   <v>       0.37500000       0.22500000       0.02500000 </v>
   <v>       0.42500000       0.22500000       0.02500000 </v>
   <v>       0.47500000       0.22500000       0.02500000 </v>
   <v>       0.27500000       0.27500000       0.02500000 </v>
   <v>       0.32500000       0.27500000       0.02500000 </v>
   <v>       0.37500000       0.27500000       0.02500000 </v>
   <v>       0.42500000       0.27500000       0.02500000 </v>
   <v>       0.47500000       0.27500000       0.02500000 </v>
   <v>       0.32500000       0.32500000       0.02500000 </v>
   <v>       0.37500000       0.32500000       0.02500000 </v>
   <v>       0.42500000       0.32500000       0.02500000 </v>
   <v>       0.47500000       0.32500000       0.02500000 </v>
   <v>       0.37500000       0.37500000       0.02500000 </v>
   <v>       0.42500000       0.37500000       0.02500000 </v>
   <v>       0.47500000       0.37500000       0.02500000 </v>
   <v>       0.42500000       0.42500000       0.02500000 </v>
   <v>       0.47500000       0.42500000       0.02500000 </v>
   <v>       0.47500000       0.47500000       0.02500000 </v>
   <v>       0.07500000       0.07500000       0.07500000 </v>
   <v>       0.12500000       0.07500000       0.07500000 </v>
   <v>       0.17500000       0.07500000       0.07500000 </v>
   <v>       0.22500000       0.07500000       0.07500000 </v>
   <v>       0.27500000       0.07500000       0.07500000 </v>
   <v>       0.32500000       0.07500000       0.07500000 </v>
   <v>       0.37500000       0.07500000       0.07500000 </v>
   <v>       0.42500000       0.07500000       0.07500000 </v>
   <v>       0.47500000       0.07500000       0.07500000 </v>
   <v>       0.12500000       0.12500000       0.07500000 </v>
   <v>       0.17500000       0.12500000       0.07500000 </v>
   <v>       0.22500000       0.12500000       0.07500000 </v>
   <v>       0.27500000       0.12500000       0.07500000 </v>
   <v>       0.32500000       0.12500000       0.07500000 </v>
   <v>       0.37500000       0.12500000       0.07500000 </v>
   <v>       0.42500000       0.12500000       0.07500000 </v>
   <v>       0.47500000       0.12500000       0.07500000 </v>
   <v>       0.17500000       0.17500000       0.07500000 </v>
   <v>       0.22500000       0.17500000       0.07500000 </v>
   <v>       0.27500000       0.17500000       0.07500000 </v>
   <v>       0.32500000       0.17500000       0.07500000 </v>
   <v>       0.37500000       0.17500000       0.07500000 </v>
   <v>       0.42500000       0.17500000       0.07500000 </v>
   <v>       0.47500000       0.17500000       0.07500000 </v>
   <v>       0.22500000       0.22500000       0.07500000 </v>
   <v>       0.27500000       0.22500000       0.07500000 </v>
   <v>       0.32500000       0.22500000       0.07500000 </v>
   <v>       0.37500000       0.22500000       0.07500000 </v>
   <v>       0.42500000       0.22500000       0.07500000 </v>
   <v>       0.47500000       0.22500000       0.07500000 </v>
   <v>       0.27500000       0.27500000       0.07500000 </v>
   <v>       0.32500000       0.27500000       0.07500000 </v>
   <v>       0.37500000       0.27500000       0.07500000 </v>
   <v>       0.42500000       0.27500000       0.07500000 </v>
   <v>       0.47500000       0.27500000       0.07500000 </v>
   <v>       0.32500000       0.32500000       0.07500000 </v>
   <v>       0.37500000       0.32500000       0.07500000 </v>
   <v>       0.42500000       0.32500000       0.07500000 </v>
   <v>       0.47500000       0.32500000       0.07500000 </v>
   <v>       0.37500000       0.37500000       0.07500000 </v>
   <v>       0.42500000       0.37500000       0.07500000 </v>
   <v>       0.47500000       0.37500000       0.07500000 </v>
   <v>       0.42500000       0.42500000       0.07500000 </v>
   <v>       0.47500000       0.42500000       0.07500000 </v>
   <v>       0.47500000       0.47500000       0.07500000 </v>
   <v>       0.12500000       0.12500000       0.12500000 </v>
   <v>       0.17500000       0.12500000       0.12500000 </v>
   <v>       0.22500000       0.12500000       0.12500000 </v>
   <v>       0.27500000       0.12500000       0.12500000 </v>
   <v>       0.32500000       0.12500000       0.12500000 </v>
   <v>       0.37500000       0.12500000       0.12500000 </v>
   <v>       0.42500000       0.12500000       0.12500000 </v>
   <v>       0.47500000       0.12500000       0.12500000 </v>
   <v>       0.17500000       0.17500000       0.12500000 </v>
   <v>       0.22500000       0.17500000       0.12500000 </v>
   <v>       0.27500000       0.17500000       0.12500000 </v>
   <v>       0.32500000       0.17500000       0.12500000 </v>
   <v>       0.37500000       0.17500000       0.12500000 </v>
   <v>       0.42500000       0.17500000       0.12500000 </v>
   <v>       0.47500000       0.17500000       0.12500000 </v>
   <v>       0.22500000       0.22500000       0.12500000 </v>
   <v>       0.27500000       0.22500000       0.12500000 </v>
   <v>       0.32500000       0.22500000       0.12500000 </v>
   <v>       0.37500000       0.22500000       0.12500000 </v>
   <v>       0.42500000       0.22500000       0.12500000 </v>
   <v>       0.47500000       0.22500000       0.12500000 </v>
   <v>       0.27500000       0.27500000       0.12500000 </v>
   <v>       0.32500000       0.27500000       0.12500000 </v>
   <v>       0.37500000       0.27500000       0.12500000 </v>
   <v>       0.42500000       0.27500000       0.12500000 </v>
   <v>       0.47500000       0.27500000       0.12500000 </v>
   <v>       0.32500000       0.32500000       0.12500000 </v>
   <v>       0.37500000       0.32500000       0.12500000 </v>
   <v>       0.42500000       0.32500000       0.12500000 </v>
   <v>       0.47500000       0.32500000       0.12500000 </v>
   <v>       0.37500000       0.37500000       0.12500000 </v>
   <v>       0.42500000       0.37500000       0.12500000 </v>
   <v>       0.47500000       0.37500000       0.12500000 </v>
   <v>       0.42500000       0.42500000       0.12500000 </v>
   <v>       0.47500000       0.42500000       0.12500000 </v>
   <v>       0.47500000       0.47500000       0.12500000 </v>
   <v>       0.17500000       0.17500000       0.17500000 </v>
   <v>       0.22500000       0.17500000       0.17500000 </v>
   <v>       0.27500000       0.17500000       0.17500000 </v>
   <v>       0.32500000       0.17500000       0.17500000 </v>
   <v>       0.37500000       0.17500000       0.17500000 </v>
   <v>       0.42500000       0.17500000       0.17500000 </v>
   <v>       0.47500000       0.17500000       0.17500000 </v>
   <v>       0.22500000       0.22500000       0.17500000 </v>
   <v>       0.27500000       0.22500000       0.17500000 </v>
   <v>       0.32500000       0.22500000       0.17500000 </v>
   <v>       0.37500000       0.22500000       0.17500000 </v>
   <v>       0.42500000       0.22500000       0.17500000 </v>
   <v>       0.47500000       0.22500000       0.17500000 </v>
   <v>       0.27500000       0.27500000       0.17500000 </v>
   <v>       0.32500000       0.27500000       0.17500000 </v>
   <v>       0.37500000       0.27500000       0.17500000 </v>
   <v>       0.42500000       0.27500000       0.17500000 </v>
   <v>       0.47500000       0.27500000       0.17500000 </v>
   <v>       0.32500000       0.32500000       0.17500000 </v>
   <v>       0.37500000       0.32500000       0.17500000 </v>
   <v>       0.42500000       0.32500000       0.17500000 </v>
   <v>       0.47500000       0.32500000       0.17500000 </v>
   <v>       0.37500000       0.37500000       0.17500000 </v>
   <v>       0.42500000       0.37500000       0.17500000 </v>
   <v>       0.47500000       0.37500000       0.17500000 </v>
   <v>       0.42500000       0.42500000       0.17500000 </v>
   <v>       0.47500000       0.42500000       0.17500000 </v>
   <v>       0.47500000       0.47500000       0.17500000 </v>
   <v>       0.22500000       0.22500000       0.22500000 </v>
   <v>       0.27500000       0.22500000       0.22500000 </v>
   <v>       0.32500000       0.22500000       0.22500000 </v>
   <v>       0.37500000       0.22500000       0.22500000 </v>
   <v>       0.42500000       0.22500000       0.22500000 </v>
   <v>       0.47500000       0.22500000       0.22500000 </v>
   <v>       0.27500000       0.27500000       0.22500000 </v>
   <v>       0.32500000       0.27500000       0.22500000 </v>
   <v>       0.37500000       0.27500000       0.22500000 </v>
   <v>       0.42500000       0.27500000       0.22500000 </v>
   <v>       0.47500000       0.27500000       0.22500000 </v>
   <v>       0.32500000       0.32500000       0.22500000 </v>
   <v>       0.37500000       0.32500000       0.22500000 </v>
   <v>       0.42500000       0.32500000       0.22500000 </v>
   <v>       0.47500000       0.32500000       0.22500000 </v>
   <v>       0.37500000       0.37500000       0.22500000 </v>
   <v>       0.42500000       0.37500000       0.22500000 </v>
   <v>       0.47500000       0.37500000       0.22500000 </v>
   <v>       0.42500000       0.42500000       0.22500000 </v>
   <v>       0.47500000       0.42500000       0.22500000 </v>
   <v>       0.47500000       0.47500000       0.22500000 </v>
   <v>       0.27500000       0.27500000       0.27500000 </v>
   <v>       0.32500000       0.27500000       0.27500000 </v>
   <v>       0.37500000       0.27500000       0.27500000 </v>
   <v>       0.42500000       0.27500000       0.27500000 </v>
   <v>       0.47500000       0.27500000       0.27500000 </v>
   <v>       0.32500000       0.32500000       0.27500000 </v>
   <v>       0.37500000       0.32500000       0.27500000 </v>
   <v>       0.42500000       0.32500000       0.27500000 </v>
   <v>       0.47500000       0.32500000       0.27500000 </v>
   <v>       0.37500000       0.37500000       0.27500000 </v>
   <v>       0.42500000       0.37500000       0.27500000 </v>
   <v>       0.47500000       0.37500000       0.27500000 </v>
   <v>       0.42500000       0.42500000       0.27500000 </v>
   <v>       0.47500000       0.42500000       0.27500000 </v>
   <v>       0.47500000       0.47500000       0.27500000 </v>
   <v>       0.32500000       0.32500000       0.32500000 </v>
   <v>       0.37500000       0.32500000       0.32500000 </v>
   <v>       0.42500000       0.32500000       0.32500000 </v>
   <v>       0.47500000       0.32500000       0.32500000 </v>
   <v>       0.37500000       0.37500000       0.32500000 </v>
   <v>       0.42500000       0.37500000       0.32500000 </v>
   <v>       0.47500000       0.37500000       0.32500000 </v>
   <v>       0.42500000       0.42500000       0.32500000 </v>
   <v>       0.47500000       0.42500000       0.32500000 </v>
   <v>       0.47500000       0.47500000       0.32500000 </v>
   <v>       0.37500000       0.37500000       0.37500000 </v>
   <v>       0.42500000       0.37500000       0.37500000 </v>
   <v>       0.47500000       0.37500000       0.37500000 </v>
   <v>       0.42500000       0.42500000       0.37500000 </v>
   <v>       0.47500000       0.42500000       0.37500000 </v>
   <v>       0.47500000       0.47500000       0.37500000 </v>
   <v>       0.42500000       0.42500000       0.42500000 </v>
   <v>       0.47500000       0.42500000       0.42500000 </v>
   <v>       0.47500000       0.47500000       0.42500000 </v>
   <v>       0.47500000       0.47500000       0.47500000 </v>
  </varray>
  <varray name="weights" >
   <v>       0.00100000 </v>
   <v>       0.00300000 </v>
   <v>       0.00300000 </v>
   <v>       0.00300000 </v>
   <v>       0.00300000 </v>
   <v>       0.00300000 </v>
   <v>       0.00300000 </v>
   <v>       0.00300000 </v>
   <v>       0.00300000 </v>
   <v>       0.00300000 </v>
   <v>       0.00300000 </v>
   <v>       0.00600000 </v>
   <v>       0.00600000 </v>
   <v>       0.00600000 </v>
   <v>       0.00600000 </v>
   <v>       0.00600000 </v>
   <v>       0.00600000 </v>
   <v>       0.00600000 </v>
   <v>       0.00600000 </v>
   <v>       0.00300000 </v>
   <v>       0.00600000 </v>
   <v>       0.00600000 </v>
   <v>       0.00600000 </v>
   <v>       0.00600000 </v>
   <v>       0.00600000 </v>
   <v>       0.00600000 </v>
   <v>       0.00600000 </v>
   <v>       0.00300000 </v>
   <v>       0.00600000 </v>
   <v>       0.00600000 </v>
   <v>       0.00600000 </v>
   <v>       0.00600000 </v>
   <v>       0.00600000 </v>
   <v>       0.00600000 </v>
   <v>       0.00300000 </v>
   <v>       0.00600000 </v>
   <v>       0.00600000 </v>
   <v>       0.00600000 </v>
   <v>       0.00600000 </v>
   <v>       0.00600000 </v>
   <v>       0.00300000 </v>
   <v>       0.00600000 </v>
   <v>       0.00600000 </v>
   <v>       0.00600000 </v>
   <v>       0.00600000 </v>
   <v>       0.00300000 </v>
   <v>       0.00600000 </v>
   <v>       0.00600000 </v>
   <v>       0.00600000 </v>
   <v>       0.00300000 </v>
   <v>       0.00600000 </v>
   <v>       0.00600000 </v>
   <v>       0.00300000 </v>
   <v>       0.00600000 </v>
   <v>       0.00300000 </v>
   <v>       0.00100000 </v>
   <v>       0.00300000 </v>
   <v>       0.00300000 </v>
   <v>       0.00300000 </v>
   <v>       0.00300000 </v>
   <v>       0.00300000 </v>
   <v>       0.00300000 </v>
   <v>       0.00300000 </v>
   <v>       0.00300000 </v>
   <v>       0.00300000 </v>
   <v>       0.00600000 </v>
   <v>       0.00600000 </v>
   <v>       0.00600000 </v>
   <v>       0.00600000 </v>
   <v>       0.00600000 </v>
   <v>       0.00600000 </v>
   <v>       0.00600000 </v>
   <v>       0.00300000 </v>
   <v>       0.00600000 </v>
   <v>       0.00600000 </v>
   <v>       0.00600000 </v>
   <v>       0.00600000 </v>
   <v>       0.00600000 </v>
   <v>       0.00600000 </v>
   <v>       0.00300000 </v>
   <v>       0.00600000 </v>
   <v>       0.00600000 </v>
   <v>       0.00600000 </v>
   <v>       0.00600000 </v>
   <v>       0.00600000 </v>
   <v>       0.00300000 </v>
   <v>       0.00600000 </v>
   <v>       0.00600000 </v>
   <v>       0.00600000 </v>
   <v>       0.00600000 </v>
   <v>       0.00300000 </v>
   <v>       0.00600000 </v>
   <v>       0.00600000 </v>
   <v>       0.00600000 </v>
   <v>       0.00300000 </v>
   <v>       0.00600000 </v>
   <v>       0.00600000 </v>
   <v>       0.00300000 </v>
   <v>       0.00600000 </v>
   <v>       0.00300000 </v>
   <v>       0.00100000 </v>
   <v>       0.00300000 </v>
   <v>       0.00300000 </v>
   <v>       0.00300000 </v>
   <v>       0.00300000 </v>
   <v>       0.00300000 </v>
   <v>       0.00300000 </v>
   <v>       0.00300000 </v>
   <v>       0.00300000 </v>
   <v>       0.00600000 </v>
   <v>       0.00600000 </v>
   <v>       0.00600000 </v>
   <v>       0.00600000 </v>
   <v>       0.00600000 </v>
   <v>       0.00600000 </v>
   <v>       0.00300000 </v>
   <v>       0.00600000 </v>
   <v>       0.00600000 </v>
   <v>       0.00600000 </v>
   <v>       0.00600000 </v>
   <v>       0.00600000 </v>
   <v>       0.00300000 </v>
   <v>       0.00600000 </v>
   <v>       0.00600000 </v>
   <v>       0.00600000 </v>
   <v>       0.00600000 </v>
   <v>       0.00300000 </v>
   <v>       0.00600000 </v>
   <v>       0.00600000 </v>
   <v>       0.00600000 </v>
   <v>       0.00300000 </v>
   <v>       0.00600000 </v>
   <v>       0.00600000 </v>
   <v>       0.00300000 </v>
   <v>       0.00600000 </v>
   <v>       0.00300000 </v>
   <v>       0.00100000 </v>
   <v>       0.00300000 </v>
   <v>       0.00300000 </v>
   <v>       0.00300000 </v>
   <v>       0.00300000 </v>
   <v>       0.00300000 </v>
   <v>       0.00300000 </v>
   <v>       0.00300000 </v>
   <v>       0.00600000 </v>
   <v>       0.00600000 </v>
   <v>       0.00600000 </v>
   <v>       0.00600000 </v>
   <v>       0.00600000 </v>
   <v>       0.00300000 </v>
   <v>       0.00600000 </v>
   <v>       0.00600000 </v>
   <v>       0.00600000 </v>
   <v>       0.00600000 </v>
   <v>       0.00300000 </v>
   <v>       0.00600000 </v>
   <v>       0.00600000 </v>
   <v>       0.00600000 </v>
   <v>       0.00300000 </v>
   <v>       0.00600000 </v>
   <v>       0.00600000 </v>
   <v>       0.00300000 </v>
   <v>       0.00600000 </v>
   <v>       0.00300000 </v>
   <v>       0.00100000 </v>
   <v>       0.00300000 </v>
   <v>       0.00300000 </v>
   <v>       0.00300000 </v>
   <v>       0.00300000 </v>
   <v>       0.00300000 </v>
   <v>       0.00300000 </v>
   <v>       0.00600000 </v>
   <v>       0.00600000 </v>
   <v>       0.00600000 </v>
   <v>       0.00600000 </v>
   <v>       0.00300000 </v>
   <v>       0.00600000 </v>
   <v>       0.00600000 </v>
   <v>       0.00600000 </v>
   <v>       0.00300000 </v>
   <v>       0.00600000 </v>
   <v>       0.00600000 </v>
   <v>       0.00300000 </v>
   <v>       0.00600000 </v>
   <v>       0.00300000 </v>
   <v>       0.00100000 </v>
   <v>       0.00300000 </v>
   <v>       0.00300000 </v>
   <v>       0.00300000 </v>
   <v>       0.00300000 </v>
   <v>       0.00300000 </v>
   <v>       0.00600000 </v>
   <v>       0.00600000 </v>
   <v>       0.00600000 </v>
   <v>       0.00300000 </v>
   <v>       0.00600000 </v>
   <v>       0.00600000 </v>
   <v>       0.00300000 </v>
   <v>       0.00600000 </v>
   <v>       0.00300000 </v>
   <v>       0.00100000 </v>
   <v>       0.00300000 </v>
   <v>       0.00300000 </v>
   <v>       0.00300000 </v>
   <v>       0.00300000 </v>
   <v>       0.00600000 </v>
   <v>       0.00600000 </v>
   <v>       0.00300000 </v>
   <v>       0.00600000 </v>
   <v>       0.00300000 </v>
   <v>       0.00100000 </v>
   <v>       0.00300000 </v>
   <v>       0.00300000 </v>
   <v>       0.00300000 </v>
   <v>       0.00600000 </v>
   <v>       0.00300000 </v>
   <v>       0.00100000 </v>
   <v>       0.00300000 </v>
   <v>       0.00300000 </v>
   <v>       0.00100000 </v>
  </varray>
 </kpoints>
 <parameters>
  <separator name="general" >
   <i type="string" name="SYSTEM">Pt bulk calculation</i>
   <i type="logical" name="LCOMPAT"> F  </i>
  </separator>
  <separator name="electronic" >
   <i type="string" name="PREC">normal</i>
   <i name="ENMAX">    450.00000000</i>
   <i name="ENAUG">    358.96600000</i>
   <i name="EDIFF">      0.00000100</i>
   <i type="int" name="IALGO">    38</i>
   <i type="int" name="IWAVPR">    11</i>
   <i type="int" name="NBANDS">    24</i>
   <i name="NELECT">     40.00000000</i>
   <i type="int" name="TURBO">     0</i>
   <i type="int" name="IRESTART">     0</i>
   <i type="int" name="NREBOOT">     0</i>
   <i type="int" name="NMIN">     0</i>
   <i name="EREF">      0.00000000</i>
   <separator name="electronic smearing" >
    <i type="int" name="ISMEAR">     2</i>
    <i name="SIGMA">      0.20000000</i>
    <i name="KSPACING">      0.50000000</i>
    <i type="logical" name="KGAMMA"> T  </i>
   </separator>
   <separator name="electronic projectors" >
    <i type="logical" name="LREAL"> F  </i>
    <v name="ROPT">      0.00000000</v>
    <i type="int" name="LMAXPAW">  -100</i>
    <i type="int" name="LMAXMIX">     2</i>
    <i type="logical" name="NLSPLINE"> F  </i>
   </separator>
   <separator name="electronic startup" >
    <i type="int" name="ISTART">     0</i>
    <i type="int" name="ICHARG">     2</i>
    <i type="int" name="INIWAV">     1</i>
   </separator>
   <separator name="electronic spin" >
    <i type="int" name="ISPIN">     1</i>
    <i type="logical" name="LNONCOLLINEAR"> F  </i>
    <v name="MAGMOM">      1.00000000      1.00000000      1.00000000      1.00000000</v>
    <i name="NUPDOWN">     -1.00000000</i>
    <i type="logical" name="LSORBIT"> F  </i>
    <v name="SAXIS">      0.00000000      0.00000000      1.00000000</v>
    <i type="logical" name="LSPIRAL"> F  </i>
    <v name="QSPIRAL">      0.00000000      0.00000000      0.00000000</v>
    <i type="logical" name="LZEROZ"> F  </i>
   </separator>
   <separator name="electronic exchange-correlation" >
    <i type="logical" name="LASPH"> F  </i>
    <i type="logical" name="LMETAGGA"> F  </i>
   </separator>
   <separator name="electronic convergence" >
    <i type="int" name="NELM">    60</i>
    <i type="int" name="NELMDL">    -5</i>
    <i type="int" name="NELMIN">    10</i>
    <i name="ENINI">    450.00000000</i>
    <separator name="electronic convergence detail" >
     <i type="logical" name="LDIAG"> T  </i>
     <i type="logical" name="LSUBROT"> F  </i>
     <i name="WEIMIN">      0.00100000</i>
     <i name="EBREAK">      0.00000001</i>
     <i name="DEPER">      0.30000000</i>
     <i type="int" name="NRMM">     4</i>
     <i name="TIME">      0.40000000</i>
    </separator>
   </separator>
   <separator name="electronic mixer" >
    <i name="AMIX">      0.40000000</i>
    <i name="BMIX">      1.00000000</i>
    <i name="AMIN">      0.10000000</i>
    <i name="AMIX_MAG">      1.60000000</i>
    <i name="BMIX_MAG">      1.00000000</i>
    <separator name="electronic mixer details" >
     <i type="int" name="IMIX">     4</i>
     <i type="logical" name="MIXFIRST"> F  </i>
     <i type="int" name="MAXMIX">   -45</i>
     <i name="WC">    100.00000000</i>
     <i type="int" name="INIMIX">     1</i>
     <i type="int" name="MIXPRE">     1</i>
     <i type="int" name="MREMOVE">     5</i>
    </separator>
   </separator>
   <separator name="electronic dipolcorrection" >
    <i type="logical" name="LDIPOL"> F  </i>
    <i type="logical" name="LMONO"> F  </i>
    <i type="int" name="IDIPOL">     0</i>
    <i name="EPSILON">      1.00000000</i>
    <v name="DIPOL">   -100.00000000   -100.00000000   -100.00000000</v>
    <i name="EFIELD">      0.00000000</i>
   </separator>
  </separator>
  <separator name="grids" >
   <i type="int" name="NGX">    20</i>
   <i type="int" name="NGY">    20</i>
   <i type="int" name="NGZ">    20</i>
   <i type="int" name="NGXF">    40</i>
   <i type="int" name="NGYF">    40</i>
   <i type="int" name="NGZF">    40</i>
   <i type="logical" name="ADDGRID"> F  </i>
  </separator>
  <separator name="ionic" >
   <i type="int" name="NSW">    10</i>
   <i type="int" name="IBRION">     2</i>
   <i type="int" name="MDALGO">     0</i>
   <i type="int" name="ISIF">     2</i>
   <i name="PSTRESS">      0.00000000</i>
   <i name="EDIFFG">     -0.02000000</i>
   <i type="int" name="NFREE">     1</i>
   <i name="POTIM">      0.20000000</i>
   <i name="SMASS">     -3.00000000</i>
   <i name="SCALEE">      1.00000000</i>
  </separator>
  <separator name="ionic md" >
   <i name="TEBEG">      0.00010000</i>
   <i name="TEEND">      0.00010000</i>
   <i type="int" name="NBLOCK">     1</i>
   <i type="int" name="KBLOCK">    10</i>
   <i type="int" name="NPACO">   256</i>
   <i name="APACO">     16.00000000</i>
  </separator>
  <separator name="symmetry" >
   <i type="int" name="ISYM">     2</i>
   <i name="SYMPREC">      0.00001000</i>
  </separator>
  <separator name="dos" >
   <i type="int" name="LORBIT">     0</i>
   <v name="RWIGS">     -1.00000000</v>
   <i type="int" name="NEDOS">   301</i>
   <i name="EMIN">     10.00000000</i>
   <i name="EMAX">    -10.00000000</i>
   <i name="EFERMI">      0.00000000</i>
  </separator>
  <separator name="writing" >
   <i type="int" name="NWRITE">     2</i>
   <i type="logical" name="LWAVE"> T  </i>
   <i type="logical" name="LDOWNSAMPLE"> F  </i>
   <i type="logical" name="LCHARG"> T  </i>
   <i type="logical" name="LPARD"> F  </i>
   <i type="logical" name="LVTOT"> F  </i>
   <i type="logical" name="LVHAR"> F  </i>
   <i type="logical" name="LELF"> F  </i>
   <i type="logical" name="LOPTICS"> F  </i>
   <v name="STM">      0.00000000      0.00000000      0.00000000      0.00000000      0.00000000      0.00000000      0.00000000</v>
  </separator>
  <separator name="performance" >
   <i type="int" name="NPAR">     2</i>
   <i type="int" name="NSIM">     4</i>
   <i type="int" name="NBLK">    -1</i>
   <i type="logical" name="LPLANE"> T  </i>
   <i type="logical" name="LSCALAPACK"> F  </i>
   <i type="logical" name="LSCAAWARE"> F  </i>
   <i type="logical" name="LSCALU"> F  </i>
   <i type="logical" name="LASYNC"> F  </i>
   <i type="logical" name="LORBITALREAL"> F  </i>
  </separator>
  <separator name="miscellaneous" >
   <i type="int" name="IDIOT">     3</i>
   <i type="int" name="ISPECIAL">     0</i>
   <i type="logical" name="LMUSIC"> F  </i>
   <v name="POMASS">    195.08000000</v>
   <v name="DARWINR">      0.00000000</v>
   <v name="DARWINV">      1.00000000</v>
   <i type="logical" name="LCORR"> T  </i>
  </separator>
  <i type="logical" name="GGA_COMPAT"> T  </i>
  <i type="logical" name="LBERRY"> F  </i>
  <i type="int" name="ICORELEVEL">     0</i>
  <i type="logical" name="LDAU"> F  </i>
  <i type="int" name="I_CONSTRAINED_M">     0</i>
  <separator name="electronic exchange-correlation" >
   <i type="string" name="GGA">91</i>
   <i type="int" name="VOSKOWN">     0</i>
   <i type="logical" name="LHFCALC"> F  </i>
   <i type="string" name="PRECFOCK"></i>
   <i type="logical" name="LSYMGRAD"> F  </i>
   <i type="logical" name="LHFONE"> F  </i>
   <i type="logical" name="LRHFCALC"> F  </i>
   <i type="logical" name="LTHOMAS"> F  </i>
   <i type="logical" name="LMODELHF"> F  </i>
   <i name="ENCUT4O">     -1.00000000</i>
   <i type="int" name="EXXOEP">     0</i>
   <i type="int" name="FOURORBIT">     0</i>
   <i name="AEXX">      0.00000000</i>
   <i name="HFALPHA">      0.00000000</i>
   <i name="MCALPHA">      0.00000000</i>
   <i name="ALDAX">      1.00000000</i>
   <i name="AGGAX">      1.00000000</i>
   <i name="ALDAC">      1.00000000</i>
   <i name="AGGAC">      1.00000000</i>
   <i type="int" name="NKREDX">     1</i>
   <i type="int" name="NKREDY">     1</i>
   <i type="int" name="NKREDZ">     1</i>
   <i type="logical" name="SHIFTRED"> F  </i>
   <i type="logical" name="ODDONLY"> F  </i>
   <i type="logical" name="EVENONLY"> F  </i>
   <i type="int" name="LMAXFOCK">     0</i>
   <i type="int" name="NMAXFOCKAE">     0</i>
   <i type="logical" name="LFOCKAEDFT"> F  </i>
   <i name="HFSCREEN">      0.00000000</i>
   <i name="HFSCREENC">      0.00000000</i>
   <i type="int" name="NBANDSGWLOW">     0</i>
  </separator>
  <separator name="vdW DFT" >
   <i type="logical" name="LUSE_VDW"> F  </i>
   <i name="Zab_VDW">     -0.84910000</i>
   <i name="PARAM1">      0.12340000</i>
   <i name="PARAM2">      1.00000000</i>
   <i name="PARAM3">      0.00000000</i>
  </separator>
  <separator name="model GW" >
   <i type="int" name="MODEL_GW">     0</i>
   <i name="MODEL_EPS0">      9.10476855</i>
   <i name="MODEL_ALPHA">      1.00000000</i>
  </separator>
  <separator name="linear response parameters" >
   <i type="logical" name="LEPSILON"> F  </i>
   <i type="logical" name="LRPA"> F  </i>
   <i type="logical" name="LNABLA"> F  </i>
   <i type="logical" name="LVEL"> F  </i>
   <i type="int" name="KINTER">     0</i>
   <i name="CSHIFT">      0.10000000</i>
   <i name="OMEGAMAX">     -1.00000000</i>
   <i name="DEG_THRESHOLD">      0.00200000</i>
   <i name="RTIME">     -0.10000000</i>
   <i name="WPLASMAI">      0.00000000</i>
   <v name="DFIELD">      0.00000000      0.00000000      0.00000000</v>
   <v name="WPLASMA">      0.00000000      0.00000000      0.00000000      0.00000000      0.00000000      0.00000000      0.00000000      0.00000000      0.00000000</v>
  </separator>
  <separator name="orbital magnetization" >
   <i type="logical" name="NUCIND"> F  </i>
   <v name="MAGPOS">      0.00000000      0.00000000      0.00000000</v>
   <i type="logical" name="LNICSALL"> T  </i>
   <i type="logical" name="ORBITALMAG"> F  </i>
   <i type="logical" name="LMAGBLOCH"> F  </i>
   <i type="logical" name="LCHIMAG"> F  </i>
   <i type="logical" name="LGAUGE"> T  </i>
   <i type="int" name="MAGATOM">     0</i>
   <v name="MAGDIPOL">      0.00000000      0.00000000      0.00000000</v>
   <v name="AVECCONST">      0.00000000      0.00000000      0.00000000</v>
  </separator>
  <separator name="response functions" >
   <i type="logical" name="LADDER"> F  </i>
   <i type="logical" name="LRPAFORCE"> F  </i>
   <i type="logical" name="LFXC"> F  </i>
   <i type="logical" name="LHARTREE"> T  </i>
   <i type="int" name="IBSE">     0</i>
   <v type="int" name="KPOINT">    -1     0     0     0</v>
   <i type="logical" name="LTCTE"> F  </i>
   <i type="logical" name="LTETE"> F  </i>
   <i type="logical" name="LTRIPLET"> F  </i>
   <i type="logical" name="LFXCEPS"> F  </i>
   <i type="logical" name="LFXHEG"> F  </i>
   <i type="int" name="NATURALO">     2</i>
   <i type="logical" name="L2ORDER"> F  </i>
   <i type="logical" name="LMP2LT"> F  </i>
   <i type="logical" name="LUSEW"> F  </i>
   <i name="ENCUTGW">     -2.00000000</i>
   <i name="ENCUTGWSOFT">     -2.00000000</i>
   <i name="ENCUTLF">     -1.00000000</i>
   <i type="int" name="LMAXMP2">    -1</i>
   <i name="SCISSOR">      0.00000000</i>
   <i type="int" name="NOMEGA">     0</i>
   <i type="int" name="NOMEGAR">     0</i>
   <i type="int" name="NBANDSGW">    -1</i>
   <i type="int" name="NBANDSO">    -1</i>
   <i type="int" name="NBANDSV">    -1</i>
   <i type="int" name="NELM">     1</i>
   <i type="int" name="NELMHF">     1</i>
   <i type="int" name="DIM">     3</i>
   <i type="int" name="ANTIRES">     0</i>
   <i name="OMEGAMAX">    -30.00000000</i>
   <i name="OMEGAMIN">    -30.00000000</i>
   <i name="OMEGATL">   -200.00000000</i>
   <i type="int" name="OMEGAGRID">   140</i>
   <i name="CSHIFT">     -0.10000000</i>
   <i type="logical" name="SELFENERGY"> F  </i>
   <i type="logical" name="LSPECTRAL"> F  </i>
   <i type="logical" name="LSPECTRALGW"> F  </i>
   <i type="logical" name="LSINGLES"> F  </i>
   <i type="logical" name="LFERMIGW"> F  </i>
   <i type="logical" name="ODDONLYGW"> F  </i>
   <i type="logical" name="EVENONLYGW"> F  </i>
   <i type="int" name="NKREDLFX">     1</i>
   <i type="int" name="NKREDLFY">     1</i>
   <i type="int" name="NKREDLFZ">     1</i>
   <i type="int" name="MAXMEM">  2800</i>
   <i type="int" name="TELESCOPE">     0</i>
   <i type="int" name="TAUPAR">     1</i>
   <i type="int" name="OMEGAPAR">    -1</i>
   <i name="LAMBDA">      1.00000000</i>
  </separator>
  <separator name="External order field" >
   <i name="OFIELD_KAPPA">      0.00000000</i>
   <v name="OFIELD_K">      0.00000000      0.00000000      0.00000000</v>
   <i name="OFIELD_Q6_NEAR">      0.00000000</i>
   <i name="OFIELD_Q6_FAR">      0.00000000</i>
   <i name="OFIELD_A">      0.00000000</i>
  </separator>
 </parameters>
 <atominfo>
  <atoms>       4 </atoms>
  <types>       1 </types>
  <array name="atoms" >
   <dimension dim="1">ion</dimension>
   <field type="string">element</field>
   <field type="int">atomtype</field>
   <set>
    <rc><c>Pt</c><c>   1</c></rc>
    <rc><c>Pt</c><c>   1</c></rc>
    <rc><c>Pt</c><c>   1</c></rc>
    <rc><c>Pt</c><c>   1</c></rc>
   </set>
  </array>
  <array name="atomtypes" >
   <dimension dim="1">type</dimension>
   <field type="int">atomspertype</field>
   <field type="string">element</field>
   <field>mass</field>
   <field>valence</field>
   <field type="string">pseudopotential</field>
   <set>
    <rc><c>   4</c><c>Pt</c><c>    195.08000000</c><c>     10.00000000</c><c> PAW_PBE Pt 05Jan2001                   </c></rc>
   </set>
  </array>
 </atominfo>
 <structure name="initialpos" >
  <crystal>
   <varray name="basis" >
    <v>       3.93000000       0.00000000       0.00000000 </v>
    <v>       0.00000000       3.93000000       0.00000000 </v>
    <v>       0.00000000       0.00000000       3.93000000 </v>
   </varray>
   <i name="volume">     60.69845700 </i>
   <varray name="rec_basis" >
    <v>       0.25445293       0.00000000       0.00000000 </v>
    <v>       0.00000000       0.25445293       0.00000000 </v>
    <v>       0.00000000       0.00000000       0.25445293 </v>
   </varray>
  </crystal>
  <varray name="positions" >
   <v>       0.00000000       0.00000000       0.00000000 </v>
   <v>       0.00000000       0.50000000       0.50000000 </v>
   <v>       0.50000000       0.00000000       0.50000000 </v>
   <v>       0.50000000       0.50000000       0.00000000 </v>
  </varray>
 </structure>
 <calculation>
  <scstep>
   <time name="dav">    1.81    1.81</time>
   <time name="total">    1.83    1.92</time>
   <energy>
    <i name="alphaZ">    383.52284309 </i>
    <i name="ewald">  -3359.84930062 </i>
    <i name="hartreedc">   -288.29773952 </i>
    <i name="XCdc">     14.13454436 </i>
    <i name="pawpsdc">   2293.79710215 </i>
    <i name="pawaedc">  -2181.03440391 </i>
    <i name="eentropy">     -0.00166991 </i>
    <i name="bandstr">    667.33798438 </i>
    <i name="atom">   2915.53815049 </i>
    <i name="e_fr_energy">    445.14751053 </i>
    <i name="e_wo_entrp">    445.14918043 </i>
    <i name="e_0_energy">    445.14792800 </i>
   </energy>
  </scstep>
  <scstep>
   <time name="dav">    1.82    1.82</time>
   <time name="total">    1.83    1.84</time>
   <energy>
    <i name="e_fr_energy">      3.14091750 </i>
    <i name="e_wo_entrp">      3.14085231 </i>
    <i name="e_0_energy">      3.14090121 </i>
   </energy>
  </scstep>
  <scstep>
   <time name="dav">    2.42    2.42</time>
   <time name="total">    2.44    2.44</time>
   <energy>
    <i name="e_fr_energy">    -25.10440835 </i>
    <i name="e_wo_entrp">    -25.10083977 </i>
    <i name="e_0_energy">    -25.10351620 </i>
   </energy>
  </scstep>
  <scstep>
   <time name="dav">    1.91    1.91</time>
   <time name="total">    1.92    1.92</time>
   <energy>
    <i name="e_fr_energy">    -25.94200879 </i>
    <i name="e_wo_entrp">    -25.93731618 </i>
    <i name="e_0_energy">    -25.94083564 </i>
   </energy>
  </scstep>
  <scstep>
   <time name="dav">    2.18    2.18</time>
   <time name="total">    2.29    2.29</time>
   <energy>
    <i name="e_fr_energy">    -25.96514117 </i>
    <i name="e_wo_entrp">    -25.96051769 </i>
    <i name="e_0_energy">    -25.96398530 </i>
   </energy>
  </scstep>
  <scstep>
   <time name="dav">    2.11    2.11</time>
   <time name="total">    2.23    2.23</time>
   <energy>
    <i name="e_fr_energy">    -24.48182378 </i>
    <i name="e_wo_entrp">    -24.47710671 </i>
    <i name="e_0_energy">    -24.48064451 </i>
   </energy>
  </scstep>
  <scstep>
   <time name="dav">    2.54    2.54</time>
   <time name="total">    2.66    2.66</time>
   <energy>
    <i name="e_fr_energy">    -24.33572466 </i>
    <i name="e_wo_entrp">    -24.33079141 </i>
    <i name="e_0_energy">    -24.33449134 </i>
   </energy>
  </scstep>
  <scstep>
   <time name="dav">    1.88    1.88</time>
   <time name="total">    2.00    2.00</time>
   <energy>
    <i name="e_fr_energy">    -24.31970901 </i>
    <i name="e_wo_entrp">    -24.31477985 </i>
    <i name="e_0_energy">    -24.31847672 </i>
   </energy>
  </scstep>
  <scstep>
   <time name="dav">    2.26    2.26</time>
   <time name="total">    2.39    2.39</time>
   <energy>
    <i name="e_fr_energy">    -24.31936442 </i>
    <i name="e_wo_entrp">    -24.31442693 </i>
    <i name="e_0_energy">    -24.31813005 </i>
   </energy>
  </scstep>
  <scstep>
   <time name="dav">    1.98    1.98</time>
   <time name="total">    2.11    2.11</time>
   <energy>
    <i name="e_fr_energy">    -24.31938451 </i>
    <i name="e_wo_entrp">    -24.31444713 </i>
    <i name="e_0_energy">    -24.31815016 </i>
   </energy>
  </scstep>
  <scstep>
   <time name="dav">    1.60    1.60</time>
   <time name="total">    1.73    1.73</time>
   <energy>
    <i name="e_fr_energy">    -24.31938716 </i>
    <i name="e_wo_entrp">    -24.31444977 </i>
    <i name="e_0_energy">    -24.31815281 </i>
   </energy>
  </scstep>
  <scstep>
   <time name="dav">    1.24    1.24</time>
   <time name="total">    1.26    1.26</time>
   <energy>
    <i name="alphaZ">    383.52284309 </i>
    <i name="ewald">  -3359.84930062 </i>
    <i name="hartreedc">   -248.06445339 </i>
    <i name="XCdc">     12.58196768 </i>
    <i name="pawpsdc">   2408.68069073 </i>
    <i name="pawaedc">  -2306.50961470 </i>
    <i name="eentropy">     -0.00493732 </i>
    <i name="bandstr">    169.78526701 </i>
    <i name="atom">   2915.53815049 </i>
    <i name="e_fr_energy">    -24.31938702 </i>
    <i name="e_wo_entrp">    -24.31444970 </i>
    <i name="e_0_energy">    -24.31815269 </i>
   </energy>
  </scstep>
  <structure>
   <crystal>
    <varray name="basis" >
     <v>       3.93000000       0.00000000       0.00000000 </v>
     <v>       0.00000000       3.93000000       0.00000000 </v>
     <v>       0.00000000       0.00000000       3.93000000 </v>
    </varray>
    <i name="volume">     60.69845700 </i>
    <varray name="rec_basis" >
     <v>       0.25445293       0.00000000       0.00000000 </v>
     <v>       0.00000000       0.25445293       0.00000000 </v>
     <v>       0.00000000       0.00000000       0.25445293 </v>
    </varray>
   </crystal>
   <varray name="positions" >
    <v>       0.00000000       0.00000000       0.00000000 </v>
    <v>       0.00000000       0.50000000       0.50000000 </v>
    <v>       0.50000000       0.00000000       0.50000000 </v>
    <v>       0.50000000       0.50000000       0.00000000 </v>
   </varray>
  </structure>
  <varray name="forces" >
   <v>       0.00000000       0.00000000      -0.00000000 </v>
   <v>      -0.00000000      -0.00000000       0.00000000 </v>
   <v>      -0.00000000       0.00000000       0.00000000 </v>
   <v>      -0.00000000      -0.00000000      -0.00000000 </v>
  </varray>
  <varray name="stress" >
   <v>     122.98157558       0.00000000       0.00000000 </v>
   <v>       0.00000000     122.98157558       0.00000000 </v>
   <v>       0.00000000      -0.00000000     122.98157558 </v>
  </varray>
  <energy>
   <i name="e_fr_energy">    -24.31938702 </i>
   <i name="e_wo_entrp">    -24.31815269 </i>
   <i name="e_0_energy">     -0.00493732 </i>
  </energy>
  <time name="totalsc">   26.64   29.01</time>
  <eigenvalues>
   <array>
    <dimension dim="1">band</dimension>
    <dimension dim="2">kpoint</dimension>
    <dimension dim="3">spin</dimension>
    <field>eigene</field>
    <field>occ</field>
    <set>
     <set comment="spin 1">
      <set comment="kpoint 1">
       <r>   -2.2527    1.0000 </r>
       <r>    0.8361    1.0000 </r>
       <r>    0.8361    1.0000 </r>
       <r>    0.8361    1.0000 </r>
       <r>    1.2771    1.0000 </r>
       <r>    1.2771    1.0000 </r>
       <r>    1.2771    1.0000 </r>
       <r>    4.0594    1.0000 </r>
       <r>    4.0812    1.0000 </r>
       <r>    4.0812    1.0000 </r>
       <r>    6.2146    1.0000 </r>
       <r>    6.2146    1.0000 </r>
       <r>    7.8300    0.5628 </r>
       <r>    7.8300    0.5628 </r>
       <r>    7.8300    0.5628 </r>
       <r>    8.1728   -0.0019 </r>
       <r>    8.1728   -0.0019 </r>
       <r>    8.1728   -0.0019 </r>
       <r>    8.3153    0.0030 </r>
       <r>    8.3153    0.0030 </r>
       <r>    8.3153    0.0030 </r>
       <r>    9.8253    0.0000 </r>
       <r>    9.8253    0.0000 </r>
       <r>    9.8253    0.0000 </r>
      </set>
      <set comment="kpoint 2">
       <r>   -2.1855    1.0000 </r>
       <r>    0.8626    1.0000 </r>
       <r>    0.8854    1.0000 </r>
       <r>    0.8854    1.0000 </r>
       <r>    1.3047    1.0000 </r>
       <r>    1.3197    1.0000 </r>
       <r>    1.3197    1.0000 </r>
       <r>    4.0186    1.0000 </r>
       <r>    4.1128    1.0000 </r>
       <r>    4.1156    1.0000 </r>
       <r>    6.1656    1.0000 </r>
       <r>    6.2329    1.0000 </r>
       <r>    7.7192    0.9927 </r>
       <r>    7.7192    0.9927 </r>
       <r>    7.7790    0.8086 </r>
       <r>    7.7790    0.8086 </r>
       <r>    7.8019    0.7051 </r>
       <r>    8.0637   -0.0454 </r>
       <r>    8.2330    0.0048 </r>
       <r>    8.3106    0.0032 </r>
       <r>    8.3106    0.0032 </r>
       <r>    9.4854    0.0000 </r>
       <r>   10.2961    0.0000 </r>
       <r>   10.2961    0.0000 </r>
      </set>
      <set comment="kpoint 3">
       <r>   -2.0524    1.0000 </r>
       <r>    0.9124    1.0000 </r>
       <r>    0.9823    1.0000 </r>
       <r>    0.9823    1.0000 </r>
       <r>    1.3597    1.0000 </r>
       <r>    1.4046    1.0000 </r>
       <r>    1.4046    1.0000 </r>
       <r>    3.9332    1.0000 </r>
       <r>    4.1818    1.0000 </r>
       <r>    4.1844    1.0000 </r>
       <r>    6.0702    1.0000 </r>
       <r>    6.2693    1.0000 </r>
       <r>    7.1730    0.9999 </r>
       <r>    7.1730    0.9999 </r>
       <r>    7.6180    1.0446 </r>
       <r>    7.6180    1.0446 </r>
       <r>    7.7421    0.9383 </r>
       <r>    7.8417    0.5013 </r>
       <r>    8.0809   -0.0382 </r>
       <r>    8.3100    0.0032 </r>
       <r>    8.3100    0.0032 </r>
       <r>    8.9334    0.0000 </r>
       <r>   10.9289    0.0000 </r>
       <r>   10.9289    0.0000 </r>
      </set>
      <set comment="kpoint 4">
       <r>   -1.8551    1.0000 </r>
       <r>    0.9789    1.0000 </r>
       <r>    1.1230    1.0000 </r>
       <r>    1.1230    1.0000 </r>
       <r>    1.4413    1.0000 </r>
       <r>    1.5317    1.0000 </r>
       <r>    1.5317    1.0000 </r>
       <r>    3.8097    1.0000 </r>
       <r>    4.2851    1.0000 </r>
       <r>    4.2870    1.0000 </r>
       <r>    5.9332    1.0000 </r>
       <r>    6.3232    1.0000 </r>
       <r>    6.5890    1.0000 </r>
       <r>    6.5890    1.0000 </r>
       <r>    7.4101    0.9955 </r>
       <r>    7.4101    0.9955 </r>
       <r>    7.4861    0.9976 </r>
       <r>    7.6343    1.0497 </r>
       <r>    7.8908    0.2529 </r>
       <r>    8.3100    0.0032 </r>
       <r>    8.3100    0.0032 </r>
       <r>    8.3304    0.0025 </r>
       <r>   11.6137    0.0000 </r>
       <r>   11.6137    0.0000 </r>
      </set>
      <set comment="kpoint 5">
       <r>   -1.5973    1.0000 </r>
       <r>    1.0505    1.0000 </r>
       <r>    1.3016    1.0000 </r>
       <r>    1.3016    1.0000 </r>
       <r>    1.5484    1.0000 </r>
       <r>    1.7003    1.0000 </r>
       <r>    1.7003    1.0000 </r>
       <r>    3.6537    1.0000 </r>
       <r>    4.4215    1.0000 </r>
       <r>    4.4230    1.0000 </r>
       <r>    5.7627    1.0000 </r>
       <r>    6.0133    1.0000 </r>
       <r>    6.0133    1.0000 </r>
       <r>    6.3934    1.0000 </r>
       <r>    6.9738    1.0000 </r>
       <r>    7.1496    1.0000 </r>
       <r>    7.1496    1.0000 </r>
       <r>    7.4391    0.9951 </r>
       <r>    7.7209    0.9893 </r>
       <r>    7.8071    0.6799 </r>
       <r>    8.3103    0.0032 </r>
       <r>    8.3103    0.0032 </r>
       <r>   12.3178    0.0000 </r>
       <r>   12.3178    0.0000 </r>
      </set>
      <set comment="kpoint 6">
       <r>   -1.2843    1.0000 </r>
       <r>    1.1091    1.0000 </r>
       <r>    1.5088    1.0000 </r>
       <r>    1.5088    1.0000 </r>
       <r>    1.6798    1.0000 </r>
       <r>    1.9094    1.0000 </r>
       <r>    1.9094    1.0000 </r>
       <r>    3.4716    1.0000 </r>
       <r>    4.5888    1.0000 </r>
       <r>    4.5914    1.0000 </r>
       <r>    5.4577    1.0000 </r>
       <r>    5.4577    1.0000 </r>
       <r>    5.5703    1.0000 </r>
       <r>    6.3704    1.0000 </r>
       <r>    6.4789    1.0000 </r>
       <r>    6.8533    1.0000 </r>
       <r>    6.8533    1.0000 </r>
       <r>    7.1602    1.0000 </r>
       <r>    7.3766    0.9967 </r>
       <r>    7.5867    1.0305 </r>
       <r>    8.3107    0.0032 </r>
       <r>    8.3107    0.0032 </r>
       <r>   13.0241    0.0000 </r>
       <r>   13.0241    0.0000 </r>
      </set>
      <set comment="kpoint 7">
       <r>   -0.9239    1.0000 </r>
       <r>    1.1279    1.0000 </r>
       <r>    1.7306    1.0000 </r>
       <r>    1.7306    1.0000 </r>
       <r>    1.8335    1.0000 </r>
       <r>    2.1576    1.0000 </r>
       <r>    2.1576    1.0000 </r>
       <r>    3.2704    1.0000 </r>
       <r>    4.7805    1.0000 </r>
       <r>    4.7912    1.0000 </r>
       <r>    4.9279    1.0000 </r>
       <r>    4.9279    1.0000 </r>
       <r>    5.3750    1.0000 </r>
       <r>    5.7915    1.0000 </r>
       <r>    6.5446    1.0000 </r>
       <r>    6.5446    1.0000 </r>
       <r>    6.5779    1.0000 </r>
       <r>    6.8427    1.0000 </r>
       <r>    6.9886    1.0000 </r>
       <r>    7.4603    0.9955 </r>
       <r>    8.3112    0.0032 </r>
       <r>    8.3112    0.0032 </r>
       <r>   13.7151    0.0000 </r>
       <r>   13.7151    0.0000 </r>
      </set>
      <set comment="kpoint 8">
       <r>   -0.5280    1.0000 </r>
       <r>    1.0730    1.0000 </r>
       <r>    1.9455    1.0000 </r>
       <r>    1.9455    1.0000 </r>
       <r>    2.0071    1.0000 </r>
       <r>    2.4436    1.0000 </r>
       <r>    2.4436    1.0000 </r>
       <r>    3.0567    1.0000 </r>
       <r>    4.4275    1.0000 </r>
       <r>    4.4275    1.0000 </r>
       <r>    4.9547    1.0000 </r>
       <r>    5.0206    1.0000 </r>
       <r>    5.2354    1.0000 </r>
       <r>    5.3187    1.0000 </r>
       <r>    6.2551    1.0000 </r>
       <r>    6.2551    1.0000 </r>
       <r>    6.5122    1.0000 </r>
       <r>    6.6201    1.0000 </r>
       <r>    6.6885    1.0000 </r>
       <r>    7.3317    0.9982 </r>
       <r>    8.3116    0.0031 </r>
       <r>    8.3116    0.0031 </r>
       <r>   14.3493    0.0000 </r>
       <r>   14.3493    0.0000 </r>
      </set>
      <set comment="kpoint 9">
       <r>   -0.1151    1.0000 </r>
       <r>    0.9143    1.0000 </r>
       <r>    2.1226    1.0000 </r>
       <r>    2.1226    1.0000 </r>
       <r>    2.1980    1.0000 </r>
       <r>    2.7668    1.0000 </r>
       <r>    2.7668    1.0000 </r>
       <r>    2.8370    1.0000 </r>
       <r>    3.9595    1.0000 </r>
       <r>    3.9595    1.0000 </r>
       <r>    4.9286    1.0000 </r>
       <r>    5.0011    1.0000 </r>
       <r>    5.2778    1.0000 </r>
       <r>    5.3567    1.0000 </r>
       <r>    6.0240    1.0000 </r>
       <r>    6.0240    1.0000 </r>
       <r>    6.1827    1.0000 </r>
       <r>    6.2677    1.0000 </r>
       <r>    6.8086    1.0000 </r>
       <r>    7.1999    0.9999 </r>
       <r>    8.3119    0.0031 </r>
       <r>    8.3119    0.0031 </r>
       <r>   14.7632    0.0000 </r>
       <r>   14.7632    0.0000 </r>
      </set>
      <set comment="kpoint 10">
       <r>    0.2882    1.0000 </r>
       <r>    0.6446    1.0000 </r>
       <r>    2.2250    1.0000 </r>
       <r>    2.2250    1.0000 </r>
       <r>    2.4027    1.0000 </r>
       <r>    2.6173    1.0000 </r>
       <r>    3.1269    1.0000 </r>
       <r>    3.1269    1.0000 </r>
       <r>    3.5261    1.0000 </r>
       <r>    3.5261    1.0000 </r>
       <r>    4.8456    1.0000 </r>
       <r>    4.8519    1.0000 </r>
       <r>    5.5597    1.0000 </r>
       <r>    5.6256    1.0000 </r>
       <r>    5.8630    1.0000 </r>
       <r>    5.8934    1.0000 </r>
       <r>    5.8934    1.0000 </r>
       <r>    5.9343    1.0000 </r>
       <r>    6.9357    1.0000 </r>
       <r>    7.0671    1.0000 </r>
       <r>    8.3120    0.0031 </r>
       <r>    8.3120    0.0031 </r>
       <r>   14.8547    0.0000 </r>
       <r>   14.8547    0.0000 </r>
      </set>
      <set comment="kpoint 11">
       <r>   -2.1191    1.0000 </r>
       <r>    0.9122    1.0000 </r>
       <r>    0.9122    1.0000 </r>
       <r>    0.9306    1.0000 </r>
       <r>    1.3469    1.0000 </r>
       <r>    1.3469    1.0000 </r>
       <r>    1.3648    1.0000 </r>
       <r>    3.9950    1.0000 </r>
       <r>    4.1291    1.0000 </r>
       <r>    4.1470    1.0000 </r>
       <r>    6.1514    1.0000 </r>
       <r>    6.2196    1.0000 </r>
       <r>    7.4657    0.9958 </r>
       <r>    7.5706    1.0229 </r>
       <r>    7.5706    1.0229 </r>
       <r>    7.6831    1.0403 </r>
       <r>    7.7698    0.8453 </r>
       <r>    7.7698    0.8453 </r>
       <r>    8.2314    0.0048 </r>
       <r>    8.2314    0.0048 </r>
       <r>    8.2650    0.0047 </r>
       <r>    9.9707    0.0000 </r>
       <r>    9.9707    0.0000 </r>
       <r>   10.6570    0.0000 </r>
      </set>
      <set comment="kpoint 12">
       <r>   -1.9871    1.0000 </r>
       <r>    0.9625    1.0000 </r>
       <r>    1.0096    1.0000 </r>
       <r>    1.0195    1.0000 </r>
       <r>    1.4012    1.0000 </r>
       <r>    1.4312    1.0000 </r>
       <r>    1.4548    1.0000 </r>
       <r>    3.9216    1.0000 </r>
       <r>    4.1879    1.0000 </r>
       <r>    4.2111    1.0000 </r>
       <r>    6.0704    1.0000 </r>
       <r>    6.2479    1.0000 </r>
       <r>    7.0086    1.0000 </r>
       <r>    7.0158    1.0000 </r>
       <r>    7.3180    0.9986 </r>
       <r>    7.5476    1.0131 </r>
       <r>    7.6217    1.0460 </r>
       <r>    7.7031    1.0193 </r>
       <r>    8.0870   -0.0354 </r>
       <r>    8.2285    0.0047 </r>
       <r>    8.2382    0.0049 </r>
       <r>    9.4475    0.0000 </r>
       <r>   10.5939    0.0000 </r>
       <r>   11.2096    0.0000 </r>
      </set>
      <set comment="kpoint 13">
       <r>   -1.7916    1.0000 </r>
       <r>    1.0298    1.0000 </r>
       <r>    1.1492    1.0000 </r>
       <r>    1.1512    1.0000 </r>
       <r>    1.4817    1.0000 </r>
       <r>    1.5572    1.0000 </r>
       <r>    1.5882    1.0000 </r>
       <r>    3.8046    1.0000 </r>
       <r>    4.2873    1.0000 </r>
       <r>    4.3062    1.0000 </r>
       <r>    5.9408    1.0000 </r>
       <r>    6.3043    1.0000 </r>
       <r>    6.4371    1.0000 </r>
       <r>    6.4838    1.0000 </r>
       <r>    6.9584    1.0000 </r>
       <r>    7.3521    0.9976 </r>
       <r>    7.4230    0.9952 </r>
       <r>    7.5728    1.0239 </r>
       <r>    7.9050    0.1906 </r>
       <r>    8.2259    0.0046 </r>
       <r>    8.2260    0.0046 </r>
       <r>    8.8665    0.0000 </r>
       <r>   11.2514    0.0000 </r>
       <r>   11.8459    0.0000 </r>
      </set>
      <set comment="kpoint 14">
       <r>   -1.5362    1.0000 </r>
       <r>    1.1024    1.0000 </r>
       <r>    1.3155    1.0000 </r>
       <r>    1.3311    1.0000 </r>
       <r>    1.5874    1.0000 </r>
       <r>    1.7243    1.0000 </r>
       <r>    1.7628    1.0000 </r>
       <r>    3.6537    1.0000 </r>
       <r>    4.4217    1.0000 </r>
       <r>    4.4301    1.0000 </r>
       <r>    5.7793    1.0000 </r>
       <r>    5.8698    1.0000 </r>
       <r>    5.9444    1.0000 </r>
       <r>    6.3806    1.0000 </r>
       <r>    6.5064    1.0000 </r>
       <r>    7.1045    1.0000 </r>
       <r>    7.1728    0.9999 </r>
       <r>    7.3658    0.9971 </r>
       <r>    7.7096    1.0097 </r>
       <r>    8.2202    0.0043 </r>
       <r>    8.2241    0.0045 </r>
       <r>    8.3264    0.0026 </r>
       <r>   11.9108    0.0000 </r>
       <r>   12.5192    0.0000 </r>
      </set>
      <set comment="kpoint 15">
       <r>   -1.2258    1.0000 </r>
       <r>    1.1618    1.0000 </r>
       <r>    1.5121    1.0000 </r>
       <r>    1.5402    1.0000 </r>
       <r>    1.7169    1.0000 </r>
       <r>    1.9314    1.0000 </r>
       <r>    1.9740    1.0000 </r>
       <r>    3.4763    1.0000 </r>
       <r>    4.5751    1.0000 </r>
       <r>    4.5902    1.0000 </r>
       <r>    5.3246    1.0000 </r>
       <r>    5.4129    1.0000 </r>
       <r>    5.6027    1.0000 </r>
       <r>    6.0034    1.0000 </r>
       <r>    6.4740    1.0000 </r>
       <r>    6.8205    1.0000 </r>
       <r>    6.8857    1.0000 </r>
       <r>    7.0943    1.0000 </r>
       <r>    7.4698    0.9961 </r>
       <r>    7.9012    0.2070 </r>
       <r>    8.2176    0.0042 </r>
       <r>    8.2227    0.0044 </r>
       <r>   12.5494    0.0000 </r>
       <r>   13.2040    0.0000 </r>
      </set>
      <set comment="kpoint 16">
       <r>   -0.8685    1.0000 </r>
       <r>    1.1810    1.0000 </r>
       <r>    1.7294    1.0000 </r>
       <r>    1.7645    1.0000 </r>
       <r>    1.8684    1.0000 </r>
       <r>    2.1771    1.0000 </r>
       <r>    2.2158    1.0000 </r>
       <r>    3.2796    1.0000 </r>
       <r>    4.7251    1.0000 </r>
       <r>    4.7880    1.0000 </r>
       <r>    4.8072    1.0000 </r>
       <r>    4.9002    1.0000 </r>
       <r>    5.4431    1.0000 </r>
       <r>    5.5138    1.0000 </r>
       <r>    6.5236    1.0000 </r>
       <r>    6.5826    1.0000 </r>
       <r>    6.5834    1.0000 </r>
       <r>    6.7873    1.0000 </r>
       <r>    7.1335    1.0000 </r>
       <r>    7.6315    1.0490 </r>
       <r>    8.2167    0.0041 </r>
       <r>    8.2216    0.0044 </r>
       <r>   13.1401    0.0000 </r>
       <r>   13.8747    0.0000 </r>
      </set>
      <set comment="kpoint 17">
       <r>   -0.4757    1.0000 </r>
       <r>    1.1255    1.0000 </r>
       <r>    1.9498    1.0000 </r>
       <r>    1.9827    1.0000 </r>
       <r>    2.0394    1.0000 </r>
       <r>    2.4595    1.0000 </r>
       <r>    2.4822    1.0000 </r>
       <r>    3.0704    1.0000 </r>
       <r>    4.3222    1.0000 </r>
       <r>    4.4127    1.0000 </r>
       <r>    4.8166    1.0000 </r>
       <r>    5.0142    1.0000 </r>
       <r>    5.1062    1.0000 </r>
       <r>    5.3796    1.0000 </r>
       <r>    6.2456    1.0000 </r>
       <r>    6.2959    1.0000 </r>
       <r>    6.4670    1.0000 </r>
       <r>    6.7045    1.0000 </r>
       <r>    6.7563    1.0000 </r>
       <r>    7.4448    0.9951 </r>
       <r>    8.2167    0.0041 </r>
       <r>    8.2206    0.0043 </r>
       <r>   13.6451    0.0000 </r>
       <r>   14.4360    0.0000 </r>
      </set>
      <set comment="kpoint 18">
       <r>   -0.0652    1.0000 </r>
       <r>    0.9649    1.0000 </r>
       <r>    2.1414    1.0000 </r>
       <r>    2.1631    1.0000 </r>
       <r>    2.2272    1.0000 </r>
       <r>    2.7721    1.0000 </r>
       <r>    2.7777    1.0000 </r>
       <r>    2.8550    1.0000 </r>
       <r>    3.8738    1.0000 </r>
       <r>    3.9550    1.0000 </r>
       <r>    4.7835    1.0000 </r>
       <r>    4.8334    1.0000 </r>
       <r>    5.2661    1.0000 </r>
       <r>    5.5001    1.0000 </r>
       <r>    6.0263    1.0000 </r>
       <r>    6.0611    1.0000 </r>
       <r>    6.1469    1.0000 </r>
       <r>    6.3894    1.0000 </r>
       <r>    6.8374    1.0000 </r>
       <r>    7.2819    0.9993 </r>
       <r>    8.2172    0.0041 </r>
       <r>    8.2197    0.0043 </r>
       <r>   14.0249    0.0000 </r>
       <r>   14.5446    0.0000 </r>
      </set>
      <set comment="kpoint 19">
       <r>    0.3366    1.0000 </r>
       <r>    0.6934    1.0000 </r>
       <r>    2.2588    1.0000 </r>
       <r>    2.2658    1.0000 </r>
       <r>    2.4285    1.0000 </r>
       <r>    2.6393    1.0000 </r>
       <r>    3.0919    1.0000 </r>
       <r>    3.1280    1.0000 </r>
       <r>    3.4699    1.0000 </r>
       <r>    3.5324    1.0000 </r>
       <r>    4.7117    1.0000 </r>
       <r>    4.7147    1.0000 </r>
       <r>    5.5412    1.0000 </r>
       <r>    5.7448    1.0000 </r>
       <r>    5.8363    1.0000 </r>
       <r>    5.9086    1.0000 </r>
       <r>    5.9212    1.0000 </r>
       <r>    6.0486    1.0000 </r>
       <r>    6.9790    1.0000 </r>
       <r>    7.1275    1.0000 </r>
       <r>    8.2180    0.0042 </r>
       <r>    8.2188    0.0042 </r>
       <r>   14.2748    0.0000 </r>
       <r>   14.4371    0.0000 </r>
      </set>
      <set comment="kpoint 20">
       <r>   -1.8574    1.0000 </r>
       <r>    1.0611    1.0000 </r>
       <r>    1.0611    1.0000 </r>
       <r>    1.0937    1.0000 </r>
       <r>    1.4840    1.0000 </r>
       <r>    1.4840    1.0000 </r>
       <r>    1.5532    1.0000 </r>
       <r>    3.8749    1.0000 </r>
       <r>    4.2240    1.0000 </r>
       <r>    4.2655    1.0000 </r>
       <r>    6.0348    1.0000 </r>
       <r>    6.2435    1.0000 </r>
       <r>    6.6915    1.0000 </r>
       <r>    6.7459    1.0000 </r>
       <r>    6.7459    1.0000 </r>
       <r>    7.4196    0.9953 </r>
       <r>    7.5865    1.0305 </r>
       <r>    7.5865    1.0305 </r>
       <r>    8.0778   -0.0396 </r>
       <r>    8.0778   -0.0396 </r>
       <r>    8.1620   -0.0045 </r>
       <r>   10.0602    0.0000 </r>
       <r>   10.0602    0.0000 </r>
       <r>   11.6794    0.0000 </r>
      </set>
      <set comment="kpoint 21">
       <r>   -1.6656    1.0000 </r>
       <r>    1.1300    1.0000 </r>
       <r>    1.2044    1.0000 </r>
       <r>    1.2045    1.0000 </r>
       <r>    1.5624    1.0000 </r>
       <r>    1.6078    1.0000 </r>
       <r>    1.6964    1.0000 </r>
       <r>    3.7801    1.0000 </r>
       <r>    4.3064    1.0000 </r>
       <r>    4.3449    1.0000 </r>
       <r>    5.9350    1.0000 </r>
       <r>    6.1749    1.0000 </r>
       <r>    6.2718    1.0000 </r>
       <r>    6.2898    1.0000 </r>
       <r>    6.3931    1.0000 </r>
       <r>    7.2405    0.9997 </r>
       <r>    7.4110    0.9955 </r>
       <r>    7.4853    0.9975 </r>
       <r>    7.8812    0.2981 </r>
       <r>    8.0686   -0.0435 </r>
       <r>    8.1101   -0.0244 </r>
       <r>    9.4642    0.0000 </r>
       <r>   10.6870    0.0000 </r>
       <r>   12.2541    0.0000 </r>
      </set>
      <set comment="kpoint 22">
       <r>   -1.4147    1.0000 </r>
       <r>    1.2045    1.0000 </r>
       <r>    1.3505    1.0000 </r>
       <r>    1.3870    1.0000 </r>
       <r>    1.6652    1.0000 </r>
       <r>    1.7720    1.0000 </r>
       <r>    1.8783    1.0000 </r>
       <r>    3.6451    1.0000 </r>
       <r>    4.4315    1.0000 </r>
       <r>    4.4454    1.0000 </r>
       <r>    5.6220    1.0000 </r>
       <r>    5.7949    1.0000 </r>
       <r>    5.8034    1.0000 </r>
       <r>    5.9820    1.0000 </r>
       <r>    6.3728    1.0000 </r>
       <r>    7.0146    1.0000 </r>
       <r>    7.1829    0.9999 </r>
       <r>    7.3032    0.9989 </r>
       <r>    7.6631    1.0501 </r>
       <r>    8.0616   -0.0461 </r>
       <r>    8.0789   -0.0391 </r>
       <r>    8.8934    0.0000 </r>
       <r>   11.3023    0.0000 </r>
       <r>   12.8832    0.0000 </r>
      </set>
      <set comment="kpoint 23">
       <r>   -1.1100    1.0000 </r>
       <r>    1.2658    1.0000 </r>
       <r>    1.5295    1.0000 </r>
       <r>    1.5997    1.0000 </r>
       <r>    1.7911    1.0000 </r>
       <r>    1.9753    1.0000 </r>
       <r>    2.0905    1.0000 </r>
       <r>    3.4804    1.0000 </r>
       <r>    4.5546    1.0000 </r>
       <r>    4.5945    1.0000 </r>
       <r>    5.0947    1.0000 </r>
       <r>    5.3205    1.0000 </r>
       <r>    5.5462    1.0000 </r>
       <r>    5.6445    1.0000 </r>
       <r>    6.4811    1.0000 </r>
       <r>    6.7536    1.0000 </r>
       <r>    6.9154    1.0000 </r>
       <r>    7.0485    1.0000 </r>
       <r>    7.4223    0.9952 </r>
       <r>    8.0565   -0.0478 </r>
       <r>    8.0608   -0.0464 </r>
       <r>    8.4003    0.0007 </r>
       <r>   11.8868    0.0000 </r>
       <r>   13.5333    0.0000 </r>
      </set>
      <set comment="kpoint 24">
       <r>   -0.7588    1.0000 </r>
       <r>    1.2858    1.0000 </r>
       <r>    1.7364    1.0000 </r>
       <r>    1.8293    1.0000 </r>
       <r>    1.9380    1.0000 </r>
       <r>    2.2158    1.0000 </r>
       <r>    2.3213    1.0000 </r>
       <r>    3.2947    1.0000 </r>
       <r>    4.5980    1.0000 </r>
       <r>    4.6479    1.0000 </r>
       <r>    4.7891    1.0000 </r>
       <r>    4.8427    1.0000 </r>
       <r>    5.1326    1.0000 </r>
       <r>    5.5263    1.0000 </r>
       <r>    6.4788    1.0000 </r>
       <r>    6.6095    1.0000 </r>
       <r>    6.6284    1.0000 </r>
       <r>    6.7514    1.0000 </r>
       <r>    7.1359    1.0000 </r>
       <r>    8.0113   -0.0468 </r>
       <r>    8.0508   -0.0494 </r>
       <r>    8.0525   -0.0490 </r>
       <r>   12.4205    0.0000 </r>
       <r>   14.1362    0.0000 </r>
      </set>
      <set comment="kpoint 25">
       <r>   -0.3722    1.0000 </r>
       <r>    1.2288    1.0000 </r>
       <r>    1.9599    1.0000 </r>
       <r>    2.0547    1.0000 </r>
       <r>    2.1037    1.0000 </r>
       <r>    2.4910    1.0000 </r>
       <r>    2.5570    1.0000 </r>
       <r>    3.0955    1.0000 </r>
       <r>    4.1376    1.0000 </r>
       <r>    4.3814    1.0000 </r>
       <r>    4.6744    1.0000 </r>
       <r>    4.7965    1.0000 </r>
       <r>    5.0125    1.0000 </r>
       <r>    5.5077    1.0000 </r>
       <r>    6.2220    1.0000 </r>
       <r>    6.3490    1.0000 </r>
       <r>    6.4381    1.0000 </r>
       <r>    6.7550    1.0000 </r>
       <r>    6.8062    1.0000 </r>
       <r>    7.7166    0.9977 </r>
       <r>    8.0457   -0.0505 </r>
       <r>    8.0493   -0.0497 </r>
       <r>   12.8831    0.0000 </r>
       <r>   14.1981    0.0000 </r>
      </set>
      <set comment="kpoint 26">
       <r>    0.0330    1.0000 </r>
       <r>    1.0643    1.0000 </r>
       <r>    2.1734    1.0000 </r>
       <r>    2.2425    1.0000 </r>
       <r>    2.2852    1.0000 </r>
       <r>    2.7899    1.0000 </r>
       <r>    2.7985    1.0000 </r>
       <r>    2.8894    1.0000 </r>
       <r>    3.7214    1.0000 </r>
       <r>    3.9446    1.0000 </r>
       <r>    4.5838    1.0000 </r>
       <r>    4.6167    1.0000 </r>
       <r>    5.2610    1.0000 </r>
       <r>    5.6275    1.0000 </r>
       <r>    6.0243    1.0000 </r>
       <r>    6.1126    1.0000 </r>
       <r>    6.1246    1.0000 </r>
       <r>    6.4638    1.0000 </r>
       <r>    6.9153    1.0000 </r>
       <r>    7.4808    0.9970 </r>
       <r>    8.0436   -0.0508 </r>
       <r>    8.0467   -0.0503 </r>
       <r>   13.2614    0.0000 </r>
       <r>   14.0048    0.0000 </r>
      </set>
      <set comment="kpoint 27">
       <r>    0.4319    1.0000 </r>
       <r>    0.7892    1.0000 </r>
       <r>    2.3222    1.0000 </r>
       <r>    2.3462    1.0000 </r>
       <r>    2.4794    1.0000 </r>
       <r>    2.6823    1.0000 </r>
       <r>    3.0330    1.0000 </r>
       <r>    3.1222    1.0000 </r>
       <r>    3.3761    1.0000 </r>
       <r>    3.5413    1.0000 </r>
       <r>    4.5068    1.0000 </r>
       <r>    4.5363    1.0000 </r>
       <r>    5.5314    1.0000 </r>
       <r>    5.8205    1.0000 </r>
       <r>    5.8515    1.0000 </r>
       <r>    5.9286    1.0000 </r>
       <r>    5.9607    1.0000 </r>
       <r>    6.1384    1.0000 </r>
       <r>    7.0888    1.0000 </r>
       <r>    7.2759    0.9994 </r>
       <r>    8.0435   -0.0508 </r>
       <r>    8.0447   -0.0507 </r>
       <r>   13.5587    0.0000 </r>
       <r>   13.7967    0.0000 </r>
      </set>
      <set comment="kpoint 28">
       <r>   -1.4790    1.0000 </r>
       <r>    1.2760    1.0000 </r>
       <r>    1.2760    1.0000 </r>
       <r>    1.2920    1.0000 </r>
       <r>    1.6830    1.0000 </r>
       <r>    1.6830    1.0000 </r>
       <r>    1.8485    1.0000 </r>
       <r>    3.7182    1.0000 </r>
       <r>    4.3637    1.0000 </r>
       <r>    4.4008    1.0000 </r>
       <r>    5.8409    1.0000 </r>
       <r>    5.8409    1.0000 </r>
       <r>    5.8816    1.0000 </r>
       <r>    5.9644    1.0000 </r>
       <r>    6.3188    1.0000 </r>
       <r>    7.0820    1.0000 </r>
       <r>    7.3421    0.9979 </r>
       <r>    7.3421    0.9979 </r>
       <r>    7.8577    0.4167 </r>
       <r>    7.8577    0.4167 </r>
       <r>    8.0071   -0.0445 </r>
       <r>   10.0627    0.0000 </r>
       <r>   10.0627    0.0000 </r>
       <r>   12.7747    0.0000 </r>
      </set>
      <set comment="kpoint 29">
       <r>   -1.2350    1.0000 </r>
       <r>    1.3536    1.0000 </r>
       <r>    1.4141    1.0000 </r>
       <r>    1.4622    1.0000 </r>
       <r>    1.7815    1.0000 </r>
       <r>    1.8427    1.0000 </r>
       <r>    2.0352    1.0000 </r>
       <r>    3.6137    1.0000 </r>
       <r>    4.4666    1.0000 </r>
       <r>    4.4699    1.0000 </r>
       <r>    5.3111    1.0000 </r>
       <r>    5.4659    1.0000 </r>
       <r>    5.5892    1.0000 </r>
       <r>    5.7783    1.0000 </r>
       <r>    6.4039    1.0000 </r>
       <r>    6.8825    1.0000 </r>
       <r>    7.1449    1.0000 </r>
       <r>    7.1978    0.9999 </r>
       <r>    7.6162    1.0439 </r>
       <r>    7.8406    0.5066 </r>
       <r>    7.9312    0.0936 </r>
       <r>    9.4597    0.0000 </r>
       <r>   10.6440    0.0000 </r>
       <r>   13.3591    0.0000 </r>
      </set>
      <set comment="kpoint 30">
       <r>   -0.9387    1.0000 </r>
       <r>    1.4179    1.0000 </r>
       <r>    1.5710    1.0000 </r>
       <r>    1.6804    1.0000 </r>
       <r>    1.9018    1.0000 </r>
       <r>    2.0404    1.0000 </r>
       <r>    2.2447    1.0000 </r>
       <r>    3.4739    1.0000 </r>
       <r>    4.5356    1.0000 </r>
       <r>    4.6159    1.0000 </r>
       <r>    4.8088    1.0000 </r>
       <r>    5.0823    1.0000 </r>
       <r>    5.1769    1.0000 </r>
       <r>    5.6590    1.0000 </r>
       <r>    6.5308    1.0000 </r>
       <r>    6.6508    1.0000 </r>
       <r>    6.9055    1.0000 </r>
       <r>    6.9769    1.0000 </r>
       <r>    7.3571    0.9974 </r>
       <r>    7.8289    0.5686 </r>
       <r>    7.8800    0.3039 </r>
       <r>    8.9220    0.0000 </r>
       <r>   11.1935    0.0000 </r>
       <r>   13.9433    0.0000 </r>
      </set>
      <set comment="kpoint 31">
       <r>   -0.5969    1.0000 </r>
       <r>    1.4390    1.0000 </r>
       <r>    1.7609    1.0000 </r>
       <r>    1.9178    1.0000 </r>
       <r>    2.0419    1.0000 </r>
       <r>    2.2735    1.0000 </r>
       <r>    2.4613    1.0000 </r>
       <r>    3.3089    1.0000 </r>
       <r>    4.3387    1.0000 </r>
       <r>    4.5756    1.0000 </r>
       <r>    4.7316    1.0000 </r>
       <r>    4.7518    1.0000 </r>
       <r>    4.8010    1.0000 </r>
       <r>    5.5720    1.0000 </r>
       <r>    6.4054    1.0000 </r>
       <r>    6.6420    1.0000 </r>
       <r>    6.6876    1.0000 </r>
       <r>    6.7017    1.0000 </r>
       <r>    7.0758    1.0000 </r>
       <r>    7.8206    0.6115 </r>
       <r>    7.8473    0.4714 </r>
       <r>    8.4689    0.0002 </r>
       <r>   11.6968    0.0000 </r>
       <r>   13.8978    0.0000 </r>
      </set>
      <set comment="kpoint 32">
       <r>   -0.2200    1.0000 </r>
       <r>    1.3791    1.0000 </r>
       <r>    1.9784    1.0000 </r>
       <r>    2.1548    1.0000 </r>
       <r>    2.1991    1.0000 </r>
       <r>    2.5379    1.0000 </r>
       <r>    2.6639    1.0000 </r>
       <r>    3.1275    1.0000 </r>
       <r>    3.9073    1.0000 </r>
       <r>    4.3307    1.0000 </r>
       <r>    4.4628    1.0000 </r>
       <r>    4.5534    1.0000 </r>
       <r>    5.0173    1.0000 </r>
       <r>    5.5723    1.0000 </r>
       <r>    6.1768    1.0000 </r>
       <r>    6.3785    1.0000 </r>
       <r>    6.4019    1.0000 </r>
       <r>    6.7699    1.0000 </r>
       <r>    6.8677    1.0000 </r>
       <r>    7.8148    0.6412 </r>
       <r>    7.8274    0.5764 </r>
       <r>    8.0979   -0.0302 </r>
       <r>   12.1414    0.0000 </r>
       <r>   13.6218    0.0000 </r>
      </set>
      <set comment="kpoint 33">
       <r>    0.1767    1.0000 </r>
       <r>    1.2082    1.0000 </r>
       <r>    2.2085    1.0000 </r>
       <r>    2.3568    1.0000 </r>
       <r>    2.3708    1.0000 </r>
       <r>    2.8274    1.0000 </r>
       <r>    2.8315    1.0000 </r>
       <r>    2.9371    1.0000 </r>
       <r>    3.5288    1.0000 </r>
       <r>    3.9257    1.0000 </r>
       <r>    4.3150    1.0000 </r>
       <r>    4.4664    1.0000 </r>
       <r>    5.2596    1.0000 </r>
       <r>    5.6841    1.0000 </r>
       <r>    6.0063    1.0000 </r>
       <r>    6.0986    1.0000 </r>
       <r>    6.1473    1.0000 </r>
       <r>    6.4541    1.0000 </r>
       <r>    7.0675    1.0000 </r>
       <r>    7.7901    0.7603 </r>
       <r>    7.8111    0.6601 </r>
       <r>    7.8162    0.6344 </r>
       <r>   12.5208    0.0000 </r>
       <r>   13.3652    0.0000 </r>
      </set>
      <set comment="kpoint 34">
       <r>    0.5702    1.0000 </r>
       <r>    0.9277    1.0000 </r>
       <r>    2.4038    1.0000 </r>
       <r>    2.4636    1.0000 </r>
       <r>    2.5538    1.0000 </r>
       <r>    2.7440    1.0000 </r>
       <r>    2.9704    1.0000 </r>
       <r>    3.0787    1.0000 </r>
       <r>    3.2907    1.0000 </r>
       <r>    3.5491    1.0000 </r>
       <r>    4.2920    1.0000 </r>
       <r>    4.3599    1.0000 </r>
       <r>    5.5228    1.0000 </r>
       <r>    5.8036    1.0000 </r>
       <r>    5.8872    1.0000 </r>
       <r>    5.9361    1.0000 </r>
       <r>    5.9876    1.0000 </r>
       <r>    6.1521    1.0000 </r>
       <r>    7.2857    0.9992 </r>
       <r>    7.5242    1.0052 </r>
       <r>    7.8095    0.6679 </r>
       <r>    7.8108    0.6613 </r>
       <r>   12.8392    0.0000 </r>
       <r>   13.1127    0.0000 </r>
      </set>
      <set comment="kpoint 35">
       <r>   -1.0003    1.0000 </r>
       <r>    1.5107    1.0000 </r>
       <r>    1.5444    1.0000 </r>
       <r>    1.5444    1.0000 </r>
       <r>    1.9355    1.0000 </r>
       <r>    1.9355    1.0000 </r>
       <r>    2.2217    1.0000 </r>
       <r>    3.5478    1.0000 </r>
       <r>    4.4975    1.0000 </r>
       <r>    4.5450    1.0000 </r>
       <r>    4.9704    1.0000 </r>
       <r>    4.9704    1.0000 </r>
       <r>    5.3095    1.0000 </r>
       <r>    5.7135    1.0000 </r>
       <r>    6.4972    1.0000 </r>
       <r>    6.7126    1.0000 </r>
       <r>    7.0384    1.0000 </r>
       <r>    7.0384    1.0000 </r>
       <r>    7.5815    1.0281 </r>
       <r>    7.5815    1.0281 </r>
       <r>    7.8044    0.6931 </r>
       <r>   10.0104    0.0000 </r>
       <r>   10.0104    0.0000 </r>
       <r>   13.8791    0.0000 </r>
      </set>
      <set comment="kpoint 36">
       <r>   -0.7151    1.0000 </r>
       <r>    1.6128    1.0000 </r>
       <r>    1.6420    1.0000 </r>
       <r>    1.7690    1.0000 </r>
       <r>    2.0485    1.0000 </r>
       <r>    2.1259    1.0000 </r>
       <r>    2.4241    1.0000 </r>
       <r>    3.4455    1.0000 </r>
       <r>    4.5013    1.0000 </r>
       <r>    4.5210    1.0000 </r>
       <r>    4.6329    1.0000 </r>
       <r>    4.6683    1.0000 </r>
       <r>    4.9811    1.0000 </r>
       <r>    5.6236    1.0000 </r>
       <r>    6.5131    1.0000 </r>
       <r>    6.6465    1.0000 </r>
       <r>    6.8327    1.0000 </r>
       <r>    6.8579    1.0000 </r>
       <r>    7.3013    0.9990 </r>
       <r>    7.5592    1.0178 </r>
       <r>    7.7071    1.0136 </r>
       <r>    9.4386    0.0000 </r>
       <r>   10.5332    0.0000 </r>
       <r>   13.7213    0.0000 </r>
      </set>
      <set comment="kpoint 37">
       <r>   -0.3861    1.0000 </r>
       <r>    1.6351    1.0000 </r>
       <r>    1.8084    1.0000 </r>
       <r>    2.0161    1.0000 </r>
       <r>    2.1792    1.0000 </r>
       <r>    2.3498    1.0000 </r>
       <r>    2.6241    1.0000 </r>
       <r>    3.3130    1.0000 </r>
       <r>    4.0633    1.0000 </r>
       <r>    4.3393    1.0000 </r>
       <r>    4.5166    1.0000 </r>
       <r>    4.6240    1.0000 </r>
       <r>    4.8343    1.0000 </r>
       <r>    5.5559    1.0000 </r>
       <r>    6.3001    1.0000 </r>
       <r>    6.5980    1.0000 </r>
       <r>    6.6166    1.0000 </r>
       <r>    6.8363    1.0000 </r>
       <r>    7.0072    1.0000 </r>
       <r>    7.5452    1.0122 </r>
       <r>    7.6377    1.0504 </r>
       <r>    8.9434    0.0000 </r>
       <r>   11.0163    0.0000 </r>
       <r>   13.3544    0.0000 </r>
      </set>
      <set comment="kpoint 38">
       <r>   -0.0228    1.0000 </r>
       <r>    1.5702    1.0000 </r>
       <r>    2.0083    1.0000 </r>
       <r>    2.2686    1.0000 </r>
       <r>    2.3248    1.0000 </r>
       <r>    2.6008    1.0000 </r>
       <r>    2.7956    1.0000 </r>
       <r>    3.1594    1.0000 </r>
       <r>    3.6631    1.0000 </r>
       <r>    4.1366    1.0000 </r>
       <r>    4.2569    1.0000 </r>
       <r>    4.4577    1.0000 </r>
       <r>    5.0357    1.0000 </r>
       <r>    5.5606    1.0000 </r>
       <r>    6.1021    1.0000 </r>
       <r>    6.3410    1.0000 </r>
       <r>    6.3567    1.0000 </r>
       <r>    6.7015    1.0000 </r>
       <r>    7.0552    1.0000 </r>
       <r>    7.5370    1.0092 </r>
       <r>    7.5909    1.0326 </r>
       <r>    8.5227    0.0000 </r>
       <r>   11.4504    0.0000 </r>
       <r>   13.0309    0.0000 </r>
      </set>
      <set comment="kpoint 39">
       <r>    0.3613    1.0000 </r>
       <r>    1.3894    1.0000 </r>
       <r>    2.2371    1.0000 </r>
       <r>    2.4825    1.0000 </r>
       <r>    2.4957    1.0000 </r>
       <r>    2.8610    1.0000 </r>
       <r>    2.9065    1.0000 </r>
       <r>    2.9930    1.0000 </r>
       <r>    3.3241    1.0000 </r>
       <r>    3.8949    1.0000 </r>
       <r>    4.0576    1.0000 </r>
       <r>    4.3429    1.0000 </r>
       <r>    5.2643    1.0000 </r>
       <r>    5.6622    1.0000 </r>
       <r>    5.9594    1.0000 </r>
       <r>    6.0561    1.0000 </r>
       <r>    6.1378    1.0000 </r>
       <r>    6.3940    1.0000 </r>
       <r>    7.2972    0.9990 </r>
       <r>    7.5336    1.0081 </r>
       <r>    7.5611    1.0186 </r>
       <r>    8.1627   -0.0043 </r>
       <r>   11.8313    0.0000 </r>
       <r>   12.7397    0.0000 </r>
      </set>
      <set comment="kpoint 40">
       <r>    0.7461    1.0000 </r>
       <r>    1.1021    1.0000 </r>
       <r>    2.4757    1.0000 </r>
       <r>    2.6129    1.0000 </r>
       <r>    2.6492    1.0000 </r>
       <r>    2.8210    1.0000 </r>
       <r>    2.9380    1.0000 </r>
       <r>    2.9625    1.0000 </r>
       <r>    3.2630    1.0000 </r>
       <r>    3.5524    1.0000 </r>
       <r>    4.0944    1.0000 </r>
       <r>    4.2060    1.0000 </r>
       <r>    5.5130    1.0000 </r>
       <r>    5.7778    1.0000 </r>
       <r>    5.8506    1.0000 </r>
       <r>    5.9123    1.0000 </r>
       <r>    5.9776    1.0000 </r>
       <r>    6.1028    1.0000 </r>
       <r>    7.5354    1.0087 </r>
       <r>    7.5438    1.0116 </r>
       <r>    7.5602    1.0182 </r>
       <r>    7.8463    0.4767 </r>
       <r>   12.1629    0.0000 </r>
       <r>   12.4586    0.0000 </r>
      </set>
      <set comment="kpoint 41">
       <r>   -0.4439    1.0000 </r>
       <r>    1.7453    1.0000 </r>
       <r>    1.8430    1.0000 </r>
       <r>    1.8430    1.0000 </r>
       <r>    2.2299    1.0000 </r>
       <r>    2.2299    1.0000 </r>
       <r>    2.6144    1.0000 </r>
       <r>    3.3870    1.0000 </r>
       <r>    4.2065    1.0000 </r>
       <r>    4.2065    1.0000 </r>
       <r>    4.5043    1.0000 </r>
       <r>    4.7377    1.0000 </r>
       <r>    4.7621    1.0000 </r>
       <r>    5.5539    1.0000 </r>
       <r>    6.3463    1.0000 </r>
       <r>    6.6891    1.0000 </r>
[...]
       <r>    8.3869    0.0010 </r>
       <r>    8.8035    0.0000 </r>
       <r>    8.8035    0.0000 </r>
       <r>    9.1239    0.0000 </r>
      </set>
      <set comment="kpoint 217">
       <r>    0.5706    1.0000 </r>
       <r>    0.7508    1.0000 </r>
       <r>    0.7508    1.0000 </r>
       <r>    0.7508    1.0000 </r>
       <r>    3.8693    1.0000 </r>
       <r>    3.8693    1.0000 </r>
       <r>    3.8693    1.0000 </r>
       <r>    4.0704    1.0000 </r>
       <r>    4.0704    1.0000 </r>
       <r>    4.1719    1.0000 </r>
       <r>    4.1719    1.0000 </r>
       <r>    4.1719    1.0000 </r>
       <r>    6.2235    1.0000 </r>
       <r>    6.2235    1.0000 </r>
       <r>    6.2235    1.0000 </r>
       <r>    6.4999    1.0000 </r>
       <r>    7.6790    1.0431 </r>
       <r>    7.6790    1.0431 </r>
       <r>    7.8971    0.2245 </r>
       <r>    7.8971    0.2245 </r>
       <r>    7.8971    0.2245 </r>
       <r>    9.0555    0.0000 </r>
       <r>    9.0555    0.0000 </r>
       <r>    9.0555    0.0000 </r>
      </set>
      <set comment="kpoint 218">
       <r>    0.5932    1.0000 </r>
       <r>    0.6534    1.0000 </r>
       <r>    0.7119    1.0000 </r>
       <r>    0.7119    1.0000 </r>
       <r>    3.8979    1.0000 </r>
       <r>    3.8979    1.0000 </r>
       <r>    3.9583    1.0000 </r>
       <r>    4.0262    1.0000 </r>
       <r>    4.0687    1.0000 </r>
       <r>    4.1028    1.0000 </r>
       <r>    4.1278    1.0000 </r>
       <r>    4.1278    1.0000 </r>
       <r>    6.4522    1.0000 </r>
       <r>    6.4522    1.0000 </r>
       <r>    6.4972    1.0000 </r>
       <r>    6.6536    1.0000 </r>
       <r>    7.8076    0.6775 </r>
       <r>    7.8664    0.3720 </r>
       <r>    7.8664    0.3720 </r>
       <r>    7.8814    0.2974 </r>
       <r>    7.8954    0.2323 </r>
       <r>    8.4232    0.0005 </r>
       <r>    8.9897    0.0000 </r>
       <r>    8.9897    0.0000 </r>
      </set>
      <set comment="kpoint 219">
       <r>    0.5933    1.0000 </r>
       <r>    0.6330    1.0000 </r>
       <r>    0.6330    1.0000 </r>
       <r>    0.6526    1.0000 </r>
       <r>    3.9480    1.0000 </r>
       <r>    3.9684    1.0000 </r>
       <r>    3.9684    1.0000 </r>
       <r>    4.0169    1.0000 </r>
       <r>    4.0420    1.0000 </r>
       <r>    4.0670    1.0000 </r>
       <r>    4.0670    1.0000 </r>
       <r>    4.0755    1.0000 </r>
       <r>    6.7320    1.0000 </r>
       <r>    6.7672    1.0000 </r>
       <r>    6.7672    1.0000 </r>
       <r>    6.9061    1.0000 </r>
       <r>    7.7766    0.8182 </r>
       <r>    7.8482    0.4668 </r>
       <r>    7.8482    0.4668 </r>
       <r>    7.8509    0.4523 </r>
       <r>    8.0807   -0.0383 </r>
       <r>    8.4721    0.0001 </r>
       <r>    8.4721    0.0001 </r>
       <r>    8.6785    0.0000 </r>
      </set>
      <set comment="kpoint 220">
       <r>    0.5721    1.0000 </r>
       <r>    0.5920    1.0000 </r>
       <r>    0.5920    1.0000 </r>
       <r>    0.5920    1.0000 </r>
       <r>    3.9940    1.0000 </r>
       <r>    3.9940    1.0000 </r>
       <r>    3.9940    1.0000 </r>
       <r>    4.0173    1.0000 </r>
       <r>    4.0173    1.0000 </r>
       <r>    4.0285    1.0000 </r>
       <r>    4.0285    1.0000 </r>
       <r>    4.0285    1.0000 </r>
       <r>    7.1438    1.0000 </r>
       <r>    7.1438    1.0000 </r>
       <r>    7.1438    1.0000 </r>
       <r>    7.3251    0.9984 </r>
       <r>    7.8604    0.4031 </r>
       <r>    7.8604    0.4031 </r>
       <r>    7.8855    0.2778 </r>
       <r>    7.8855    0.2778 </r>
       <r>    7.8855    0.2778 </r>
       <r>    8.1873    0.0009 </r>
       <r>    8.1873    0.0009 </r>
       <r>    8.1873    0.0009 </r>
      </set>
     </set>
    </set>
   </array>
  </eigenvalues>
  <separator name="orbital magnetization" >
   <v name="MAGDIPOLOUT">      0.00000000      0.00000000      0.00000000</v>
  </separator>
  <dos>
   <i name="efermi">      7.84190214 </i>
   <total>
    <array>
     <dimension dim="1">gridpoints</dimension>
     <dimension dim="2">spin</dimension>
     <field>energy</field>
     <field>total</field>
     <field>integrated</field>
     <set>
      <set comment="spin 1">
       <r>    -4.2527     0.0000     0.0000 </r>
       <r>    -4.1823     0.0000     0.0000 </r>
       <r>    -4.1119     0.0000     0.0000 </r>
       <r>    -4.0416     0.0000     0.0000 </r>
       <r>    -3.9712     0.0000     0.0000 </r>
       <r>    -3.9009     0.0000     0.0000 </r>
       <r>    -3.8305     0.0000     0.0000 </r>
       <r>    -3.7602     0.0000     0.0000 </r>
       <r>    -3.6898     0.0000     0.0000 </r>
       <r>    -3.6194     0.0000     0.0000 </r>
       <r>    -3.5491     0.0000     0.0000 </r>
       <r>    -3.4787     0.0000     0.0000 </r>
       <r>    -3.4084     0.0000     0.0000 </r>
       <r>    -3.3380     0.0000     0.0000 </r>
       <r>    -3.2677     0.0000     0.0000 </r>
       <r>    -3.1973     0.0000     0.0000 </r>
       <r>    -3.1269     0.0000     0.0000 </r>
       <r>    -3.0566     0.0000     0.0000 </r>
       <r>    -2.9862     0.0000     0.0000 </r>
       <r>    -2.9159     0.0000     0.0000 </r>
       <r>    -2.8455     0.0000     0.0000 </r>
       <r>    -2.7751     0.0001     0.0000 </r>
       <r>    -2.7048     0.0002     0.0000 </r>
       <r>    -2.6344     0.0004     0.0000 </r>
       <r>    -2.5641     0.0001     0.0001 </r>
       <r>    -2.4937    -0.0013    -0.0000 </r>
       <r>    -2.4234    -0.0034    -0.0003 </r>
       <r>    -2.3530    -0.0014    -0.0004 </r>
       <r>    -2.2826     0.0121     0.0005 </r>
       <r>    -2.2123     0.0396     0.0033 </r>
       <r>    -2.1419     0.0743     0.0085 </r>
       <r>    -2.0716     0.1059     0.0159 </r>
       <r>    -2.0012     0.1290     0.0250 </r>
       <r>    -1.9309     0.1473     0.0354 </r>
       <r>    -1.8605     0.1664     0.0471 </r>
       <r>    -1.7901     0.1831     0.0600 </r>
       <r>    -1.7198     0.1938     0.0736 </r>
       <r>    -1.6494     0.2066     0.0881 </r>
       <r>    -1.5791     0.2285     0.1042 </r>
       <r>    -1.5087     0.2493     0.1218 </r>
       <r>    -1.4384     0.2554     0.1397 </r>
       <r>    -1.3680     0.2552     0.1577 </r>
       <r>    -1.2976     0.2734     0.1769 </r>
       <r>    -1.2273     0.3100     0.1987 </r>
       <r>    -1.1569     0.3304     0.2220 </r>
       <r>    -1.0866     0.3203     0.2445 </r>
       <r>    -1.0162     0.3153     0.2667 </r>
       <r>    -0.9458     0.3443     0.2909 </r>
       <r>    -0.8755     0.3848     0.3180 </r>
       <r>    -0.8051     0.4051     0.3465 </r>
       <r>    -0.7348     0.4085     0.3752 </r>
       <r>    -0.6644     0.4085     0.4040 </r>
       <r>    -0.5941     0.4113     0.4329 </r>
       <r>    -0.5237     0.4346     0.4635 </r>
       <r>    -0.4533     0.4882     0.4978 </r>
       <r>    -0.3830     0.5358     0.5355 </r>
       <r>    -0.3126     0.5316     0.5729 </r>
       <r>    -0.2423     0.4992     0.6081 </r>
       <r>    -0.1719     0.5148     0.6443 </r>
       <r>    -0.1016     0.5947     0.6861 </r>
       <r>    -0.0312     0.6640     0.7328 </r>
       <r>     0.0392     0.6704     0.7800 </r>
       <r>     0.1095     0.6647     0.8268 </r>
       <r>     0.1799     0.7093     0.8767 </r>
       <r>     0.2502     0.7736     0.9311 </r>
       <r>     0.3206     0.8109     0.9882 </r>
       <r>     0.3910     0.8678     1.0492 </r>
       <r>     0.4613     1.0270     1.1215 </r>
       <r>     0.5317     1.3031     1.2132 </r>
       <r>     0.6020     1.6370     1.3283 </r>
       <r>     0.6724     1.9486     1.4654 </r>
       <r>     0.7427     2.1825     1.6190 </r>
       <r>     0.8131     2.3362     1.7834 </r>
       <r>     0.8835     2.4850     1.9582 </r>
       <r>     0.9538     2.7357     2.1507 </r>
       <r>     1.0242     3.0998     2.3688 </r>
       <r>     1.0945     3.4728     2.6131 </r>
       <r>     1.1649     3.7772     2.8789 </r>
       <r>     1.2352     4.0609     3.1646 </r>
       <r>     1.3056     4.4068     3.4746 </r>
       <r>     1.3760     4.8157     3.8135 </r>
       <r>     1.4463     5.2322     4.1816 </r>
       <r>     1.5167     5.5954     4.5753 </r>
       <r>     1.5870     5.8314     4.9855 </r>
       <r>     1.6574     5.8967     5.4004 </r>
       <r>     1.7277     5.8286     5.8105 </r>
       <r>     1.7981     5.6814     6.2102 </r>
       <r>     1.8685     5.4936     6.5968 </r>
       <r>     1.9388     5.3301     6.9718 </r>
       <r>     2.0092     5.2146     7.3387 </r>
       <r>     2.0795     5.1188     7.6988 </r>
       <r>     2.1499     5.0904     8.0570 </r>
       <r>     2.2203     5.1234     8.4174 </r>
       <r>     2.2906     5.0165     8.7704 </r>
       <r>     2.3610     4.6865     9.1001 </r>
       <r>     2.4313     4.2967     9.4024 </r>
       <r>     2.5017     3.9188     9.6781 </r>
       <r>     2.5720     3.5475     9.9277 </r>
       <r>     2.6424     3.4179    10.1682 </r>
       <r>     2.7128     3.8075    10.4361 </r>
       <r>     2.7831     4.5501    10.7562 </r>
       <r>     2.8535     5.1158    11.1162 </r>
       <r>     2.9238     5.2403    11.4849 </r>
       <r>     2.9942     5.1837    11.8496 </r>
       <r>     3.0645     5.2526    12.2191 </r>
       <r>     3.1349     5.4175    12.6003 </r>
       <r>     3.2053     5.5297    12.9894 </r>
       <r>     3.2756     5.5445    13.3794 </r>
       <r>     3.3460     5.4913    13.7658 </r>
       <r>     3.4163     5.5016    14.1529 </r>
       <r>     3.4867     5.7072    14.5544 </r>
       <r>     3.5570     5.9804    14.9752 </r>
       <r>     3.6274     6.0552    15.4012 </r>
       <r>     3.6978     5.9217    15.8179 </r>
       <r>     3.7681     5.8680    16.2307 </r>
       <r>     3.8385     6.1258    16.6617 </r>
       <r>     3.9088     6.5781    17.1245 </r>
       <r>     3.9792     6.9116    17.6108 </r>
       <r>     4.0496     7.0244    18.1051 </r>
       <r>     4.1199     7.1104    18.6053 </r>
       <r>     4.1903     7.3850    19.1249 </r>
       <r>     4.2606     7.9323    19.6830 </r>
       <r>     4.3310     8.7346    20.2976 </r>
       <r>     4.4013     9.5631    20.9704 </r>
       <r>     4.4717     9.8869    21.6660 </r>
       <r>     4.5421     9.2547    22.3172 </r>
       <r>     4.6124     7.8686    22.8708 </r>
       <r>     4.6828     6.5150    23.3292 </r>
       <r>     4.7531     5.7751    23.7355 </r>
       <r>     4.8235     5.5149    24.1235 </r>
       <r>     4.8938     5.3005    24.4964 </r>
       <r>     4.9642     4.9978    24.8481 </r>
       <r>     5.0346     4.7155    25.1798 </r>
       <r>     5.1049     4.5140    25.4974 </r>
       <r>     5.1753     4.4346    25.8094 </r>
       <r>     5.2456     4.4818    26.1248 </r>
       <r>     5.3160     4.5095    26.4420 </r>
       <r>     5.3864     4.4616    26.7560 </r>
       <r>     5.4567     4.5467    27.0759 </r>
       <r>     5.5271     4.8751    27.4189 </r>
       <r>     5.5974     5.2299    27.7868 </r>
       <r>     5.6678     5.4264    28.1686 </r>
       <r>     5.7381     5.6130    28.5635 </r>
       <r>     5.8085     5.9869    28.9848 </r>
       <r>     5.8789     6.4025    29.4352 </r>
       <r>     5.9492     6.5273    29.8945 </r>
       <r>     6.0196     6.2514    30.3343 </r>
       <r>     6.0899     5.7178    30.7366 </r>
       <r>     6.1603     5.1640    31.0999 </r>
       <r>     6.2306     4.8605    31.4419 </r>
       <r>     6.3010     4.9007    31.7867 </r>
       <r>     6.3714     5.0374    32.1411 </r>
       <r>     6.4417     4.9700    32.4908 </r>
       <r>     6.5121     4.7016    32.8216 </r>
       <r>     6.5824     4.4624    33.1355 </r>
       <r>     6.6528     4.4020    33.4452 </r>
       <r>     6.7231     4.4673    33.7596 </r>
       <r>     6.7935     4.4977    34.0760 </r>
       <r>     6.8639     4.3990    34.3855 </r>
       <r>     6.9342     4.2912    34.6874 </r>
       <r>     7.0046     4.3632    34.9944 </r>
       <r>     7.0749     4.5585    35.3151 </r>
       <r>     7.1453     4.6797    35.6444 </r>
       <r>     7.2157     4.7143    35.9761 </r>
       <r>     7.2860     4.7478    36.3101 </r>
       <r>     7.3564     4.8067    36.6483 </r>
       <r>     7.4267     5.0226    37.0017 </r>
       <r>     7.4971     5.5723    37.3937 </r>
       <r>     7.5674     6.3458    37.8402 </r>
       <r>     7.6378     7.0794    38.3383 </r>
       <r>     7.7082     7.7426    38.8831 </r>
       <r>     7.7785     8.3096    39.4677 </r>
       <r>     7.8489     8.3742    40.0569 </r>
       <r>     7.9192     7.6213    40.5931 </r>
       <r>     7.9896     6.4170    41.0446 </r>
       <r>     8.0599     5.3545    41.4213 </r>
       <r>     8.1303     4.5630    41.7424 </r>
       <r>     8.2007     3.8172    42.0109 </r>
       <r>     8.2710     2.9590    42.2191 </r>
       <r>     8.3414     2.1013    42.3670 </r>
       <r>     8.4117     1.5629    42.4769 </r>
       <r>     8.4821     1.4569    42.5794 </r>
       <r>     8.5524     1.4429    42.6809 </r>
       <r>     8.6228     1.1683    42.7631 </r>
       <r>     8.6932     0.7571    42.8164 </r>
       <r>     8.7635     0.6023    42.8588 </r>
       <r>     8.8339     0.8642    42.9196 </r>
       <r>     8.9042     1.3157    43.0122 </r>
       <r>     8.9746     1.5614    43.1220 </r>
       <r>     9.0450     1.4031    43.2207 </r>
       <r>     9.1153     1.0179    43.2923 </r>
       <r>     9.1857     0.7436    43.3447 </r>
       <r>     9.2560     0.7752    43.3992 </r>
       <r>     9.3264     1.0621    43.4739 </r>
       <r>     9.3967     1.3508    43.5690 </r>
       <r>     9.4671     1.3757    43.6658 </r>
       <r>     9.5375     1.1320    43.7454 </r>
       <r>     9.6078     0.8936    43.8083 </r>
       <r>     9.6782     0.8968    43.8714 </r>
       <r>     9.7485     1.0853    43.9477 </r>
       <r>     9.8189     1.2198    44.0336 </r>
       <r>     9.8892     1.1815    44.1167 </r>
       <r>     9.9596     1.0874    44.1932 </r>
       <r>    10.0300     1.0925    44.2701 </r>
       <r>    10.1003     1.1745    44.3527 </r>
       <r>    10.1707     1.1916    44.4365 </r>
       <r>    10.2410     1.0814    44.5126 </r>
       <r>    10.3114     0.9313    44.5781 </r>
       <r>    10.3817     0.8917    44.6409 </r>
       <r>    10.4521     1.0306    44.7134 </r>
       <r>    10.5225     1.2273    44.7997 </r>
       <r>    10.5928     1.2671    44.8889 </r>
       <r>    10.6632     1.1127    44.9672 </r>
       <r>    10.7335     0.9773    45.0359 </r>
       <r>    10.8039     1.0334    45.1086 </r>
       <r>    10.8743     1.1702    45.1910 </r>
       <r>    10.9446     1.1662    45.2730 </r>
       <r>    11.0150     0.9963    45.3431 </r>
       <r>    11.0853     0.8327    45.4017 </r>
       <r>    11.1557     0.8290    45.4600 </r>
       <r>    11.2260     0.9918    45.5298 </r>
       <r>    11.2964     1.1870    45.6133 </r>
       <r>    11.3668     1.2529    45.7015 </r>
       <r>    11.4371     1.1536    45.7826 </r>
       <r>    11.5075     0.9899    45.8523 </r>
       <r>    11.5778     0.8709    45.9136 </r>
       <r>    11.6482     0.8379    45.9725 </r>
       <r>    11.7185     0.8946    46.0355 </r>
       <r>    11.7889     1.0163    46.1070 </r>
       <r>    11.8593     1.1070    46.1849 </r>
       <r>    11.9296     1.0505    46.2588 </r>
       <r>    12.0000     0.8762    46.3204 </r>
       <r>    12.0703     0.7673    46.3744 </r>
       <r>    12.1407     0.8355    46.4332 </r>
       <r>    12.2111     0.9826    46.5023 </r>
       <r>    12.2814     1.0356    46.5752 </r>
       <r>    12.3518     0.9626    46.6429 </r>
       <r>    12.4221     0.8806    46.7049 </r>
       <r>    12.4925     0.8640    46.7656 </r>
       <r>    12.5628     0.8610    46.8262 </r>
       <r>    12.6332     0.8176    46.8838 </r>
       <r>    12.7036     0.7690    46.9379 </r>
       <r>    12.7739     0.7664    46.9918 </r>
       <r>    12.8443     0.7969    47.0478 </r>
       <r>    12.9146     0.8267    47.1060 </r>
       <r>    12.9850     0.8515    47.1659 </r>
       <r>    13.0553     0.8563    47.2262 </r>
       <r>    13.1257     0.8070    47.2830 </r>
       <r>    13.1961     0.7227    47.3338 </r>
       <r>    13.2664     0.6872    47.3821 </r>
       <r>    13.3368     0.7450    47.4346 </r>
       <r>    13.4071     0.8226    47.4924 </r>
       <r>    13.4775     0.8138    47.5497 </r>
       <r>    13.5478     0.7239    47.6006 </r>
       <r>    13.6182     0.6489    47.6463 </r>
       <r>    13.6886     0.6288    47.6905 </r>
       <r>    13.7589     0.6133    47.7337 </r>
       <r>    13.8293     0.5649    47.7734 </r>
       <r>    13.8996     0.5008    47.8087 </r>
       <r>    13.9700     0.4315    47.8390 </r>
       <r>    14.0404     0.3514    47.8637 </r>
       <r>    14.1107     0.2788    47.8834 </r>
       <r>    14.1811     0.2372    47.9000 </r>
       <r>    14.2514     0.2180    47.9154 </r>
       <r>    14.3218     0.2059    47.9299 </r>
       <r>    14.3921     0.2007    47.9440 </r>
       <r>    14.4625     0.1899    47.9573 </r>
       <r>    14.5329     0.1490    47.9678 </r>
       <r>    14.6032     0.0865    47.9739 </r>
       <r>    14.6736     0.0494    47.9774 </r>
       <r>    14.7439     0.0638    47.9819 </r>
       <r>    14.8143     0.0973    47.9887 </r>
       <r>    14.8846     0.0983    47.9956 </r>
       <r>    14.9550     0.0590    47.9998 </r>
       <r>    15.0254     0.0150    48.0009 </r>
       <r>    15.0957    -0.0057    48.0005 </r>
       <r>    15.1661    -0.0061    48.0000 </r>
       <r>    15.2364    -0.0016    47.9999 </r>
       <r>    15.3068     0.0005    47.9999 </r>
       <r>    15.3771     0.0005    48.0000 </r>
       <r>    15.4475     0.0002    48.0000 </r>
       <r>    15.5179     0.0001    48.0000 </r>
       <r>    15.5882     0.0000    48.0000 </r>
       <r>    15.6586     0.0000    48.0000 </r>
       <r>    15.7289     0.0000    48.0000 </r>
       <r>    15.7993     0.0000    48.0000 </r>
       <r>    15.8697     0.0000    48.0000 </r>
       <r>    15.9400     0.0000    48.0000 </r>
       <r>    16.0104     0.0000    48.0000 </r>
       <r>    16.0807     0.0000    48.0000 </r>
       <r>    16.1511     0.0000    48.0000 </r>
       <r>    16.2214     0.0000    48.0000 </r>
       <r>    16.2918     0.0000    48.0000 </r>
       <r>    16.3622     0.0000    48.0000 </r>
       <r>    16.4325     0.0000    48.0000 </r>
       <r>    16.5029     0.0000    48.0000 </r>
       <r>    16.5732     0.0000    48.0000 </r>
       <r>    16.6436     0.0000    48.0000 </r>
       <r>    16.7139     0.0000    48.0000 </r>
       <r>    16.7843     0.0000    48.0000 </r>
       <r>    16.8547     0.0000    48.0000 </r>
      </set>
     </set>
    </array>
   </total>
  </dos>
 </calculation>
 <structure name="finalpos" >
  <crystal>
   <varray name="basis" >
    <v>       3.93000000       0.00000000       0.00000000 </v>
    <v>       0.00000000       3.93000000       0.00000000 </v>
    <v>       0.00000000       0.00000000       3.93000000 </v>
   </varray>
   <i name="volume">     60.69845700 </i>
   <varray name="rec_basis" >
    <v>       0.25445293       0.00000000       0.00000000 </v>
    <v>       0.00000000       0.25445293       0.00000000 </v>
    <v>       0.00000000       0.00000000       0.25445293 </v>
   </varray>
  </crystal>
  <varray name="positions" >
   <v>       0.00000000       0.00000000       0.00000000 </v>
   <v>       0.00000000       0.50000000       0.50000000 </v>
   <v>       0.50000000       0.00000000       0.50000000 </v>
   <v>       0.50000000       0.50000000       0.00000000 </v>
  </varray>
 </structure>
</modeling>
