This job started on
Tue Jan 22 12:57:12 CET 2019
 running on   16 total cores
 distrk:  each k-point on   16 cores,    1 groups
 distr:  one band on    8 cores,    2 groups
 using from now: INCAR     
 vasp.5.4.4.18Apr17-6-g9f103f2a35 (build Apr 17 2018 18:25:23) complex          
  
 POSCAR found :  1 types and       4 ions

 ----------------------------------------------------------------------------- 
|                                                                             |
|  ADVICE TO THIS USER RUNNING 'VASP/VAMP'   (HEAR YOUR MASTER'S VOICE ...):  |
|                                                                             |
|      You enforced a specific xc-type in the INCAR file,                     |
|      a different type was found on the POTCAR file                          |
|          I HOPE YOU KNOW, WHAT YOU ARE  DOING                               |
|                                                                             |
 ----------------------------------------------------------------------------- 

 LDA part: xc-table for Ceperly-Alder, standard interpolation
 POSCAR found :  1 types and       4 ions
 POSCAR, INCAR and KPOINTS ok, starting setup
 FFT: planning ...
 WAVECAR not read
 entering main loop
       N       E                     dE             d eps       ncg     rms          rms(c)
DAV:   1     0.446607910345E+03    0.44661E+03   -0.17333E+04  5776   0.151E+03
DAV:   2     0.367825979815E+01   -0.44293E+03   -0.43019E+03  5784   0.522E+02
DAV:   3    -0.250935913218E+02   -0.28772E+02   -0.27911E+02  7960   0.122E+02
DAV:   4    -0.259414308080E+02   -0.84784E+00   -0.84303E+00  6080   0.272E+01
DAV:   5    -0.259657617694E+02   -0.24331E-01   -0.24311E-01  7104   0.306E+00    0.768E+00
DAV:   6    -0.244828891246E+02    0.14829E+01   -0.34762E+00  7016   0.209E+01    0.227E+00
DAV:   7    -0.243367001664E+02    0.14619E+00   -0.46000E-01  8648   0.686E+00    0.535E-01
DAV:   8    -0.243206340525E+02    0.16066E-01   -0.18858E-02  6056   0.173E+00    0.993E-02
DAV:   9    -0.243203301879E+02    0.30386E-03   -0.17141E-03  7576   0.452E-01    0.229E-02
DAV:  10    -0.243203497153E+02   -0.19527E-04   -0.45383E-05  6496   0.380E-02    0.367E-03
DAV:  11    -0.243203524054E+02   -0.26901E-05   -0.13106E-06  4456   0.116E-02    0.664E-04
DAV:  12    -0.243203522425E+02    0.16296E-06   -0.22292E-07  3176   0.387E-03
   1 F= -.24320352E+02 E0= -.24319011E+02  d E =-.243204E+02
 curvature:   0.00 expect dE= 0.000E+00 dE for cont linesearch  0.000E+00
 trial: gam= 0.00000 g(F)=  0.909E-64 g(S)=  0.000E+00 ort = 0.000E+00 (trialstep = 0.100E+01)
 search vector abs. value=  0.100E-09
 reached required accuracy - stopping structural energy minimisation
 writing wavefunctions
This job finished on
Tue Jan 22 12:57:32 CET 2019
