<?xml version="1.0" encoding="ISO-8859-1"?>
<modeling>
 <generator>
  <i name="program" type="string">vasp </i>
  <i name="version" type="string">5.4.4.18Apr17-6-g9f103f2a35  </i>
  <i name="subversion" type="string">(build Apr 17 2018 18:25:23) complex            parallel </i>
  <i name="platform" type="string">LinuxIFC </i>
  <i name="date" type="string">2019 01 22 </i>
  <i name="time" type="string">12:57:13 </i>
 </generator>
 <incar>
  <i type="string" name="SYSTEM"> Pt bulk calculation</i>
  <i type="int" name="ISTART">     0</i>
  <i type="string" name="PREC">normal</i>
  <i type="string" name="ALGO"> NORMAL</i>
  <i type="int" name="ICHARG">     2</i>
  <i type="int" name="INIWAV">     1</i>
  <i type="int" name="NELMIN">    10</i>
  <i type="int" name="IBRION">     2</i>
  <i name="EDIFF">      0.00000100</i>
  <i name="EDIFFG">     -0.02000000</i>
  <i type="int" name="NSW">    10</i>
  <i name="ENCUT">    450.00000000</i>
  <i name="POTIM">      0.20000000</i>
  <i type="int" name="ISMEAR">     2</i>
  <i name="SIGMA">      0.20000000</i>
  <v type="int" name="KPOINT_BSE">    -1     0     0     0</v>
  <i type="string" name="GGA"> 91</i>
 </incar>
 <structure name="primitive_cell" >
  <crystal>
   <varray name="basis" >
    <v>       1.96500000       1.96500000      -0.00000000 </v>
    <v>       1.96500000       0.00000000      -1.96500000 </v>
    <v>       0.00000000       1.96500000      -1.96500000 </v>
   </varray>
   <i name="volume">     15.17461425 </i>
   <varray name="rec_basis" >
    <v>       0.25445293       0.25445293       0.25445293 </v>
    <v>       0.25445293      -0.25445293      -0.25445293 </v>
    <v>      -0.25445293       0.25445293      -0.25445293 </v>
   </varray>
  </crystal>
  <varray name="positions" >
   <v>       0.00000000       0.00000000       0.00000000 </v>
  </varray>
 </structure>
 <varray name="primitive_index" >
  <v type="int" >        1 </v>
 </varray>
 <kpoints>
  <generation param="Monkhorst-Pack">
   <v type="int" name="divisions">      16       16       16 </v>
   <v name="usershift">      0.00000000       0.00000000       0.00000000 </v>
   <v name="genvec1">      0.06250000       0.00000000       0.00000000 </v>
   <v name="genvec2">      0.00000000       0.06250000       0.00000000 </v>
   <v name="genvec3">      0.00000000       0.00000000       0.06250000 </v>
   <v name="shift">      0.50000000       0.50000000       0.50000000 </v>
  </generation>
  <varray name="kpointlist" >
   <v>       0.03125000       0.03125000       0.03125000 </v>
   <v>       0.09375000       0.03125000       0.03125000 </v>
   <v>       0.15625000       0.03125000       0.03125000 </v>
   <v>       0.21875000       0.03125000       0.03125000 </v>
   <v>       0.28125000       0.03125000       0.03125000 </v>
   <v>       0.34375000       0.03125000       0.03125000 </v>
   <v>       0.40625000       0.03125000       0.03125000 </v>
   <v>       0.46875000       0.03125000       0.03125000 </v>
   <v>       0.09375000       0.09375000       0.03125000 </v>
   <v>       0.15625000       0.09375000       0.03125000 </v>
   <v>       0.21875000       0.09375000       0.03125000 </v>
   <v>       0.28125000       0.09375000       0.03125000 </v>
   <v>       0.34375000       0.09375000       0.03125000 </v>
   <v>       0.40625000       0.09375000       0.03125000 </v>
   <v>       0.46875000       0.09375000       0.03125000 </v>
   <v>       0.15625000       0.15625000       0.03125000 </v>
   <v>       0.21875000       0.15625000       0.03125000 </v>
   <v>       0.28125000       0.15625000       0.03125000 </v>
   <v>       0.34375000       0.15625000       0.03125000 </v>
   <v>       0.40625000       0.15625000       0.03125000 </v>
   <v>       0.46875000       0.15625000       0.03125000 </v>
   <v>       0.21875000       0.21875000       0.03125000 </v>
   <v>       0.28125000       0.21875000       0.03125000 </v>
   <v>       0.34375000       0.21875000       0.03125000 </v>
   <v>       0.40625000       0.21875000       0.03125000 </v>
   <v>       0.46875000       0.21875000       0.03125000 </v>
   <v>       0.28125000       0.28125000       0.03125000 </v>
   <v>       0.34375000       0.28125000       0.03125000 </v>
   <v>       0.40625000       0.28125000       0.03125000 </v>
   <v>       0.46875000       0.28125000       0.03125000 </v>
   <v>       0.34375000       0.34375000       0.03125000 </v>
   <v>       0.40625000       0.34375000       0.03125000 </v>
   <v>       0.46875000       0.34375000       0.03125000 </v>
   <v>       0.40625000       0.40625000       0.03125000 </v>
   <v>       0.46875000       0.40625000       0.03125000 </v>
   <v>       0.46875000       0.46875000       0.03125000 </v>
   <v>       0.09375000       0.09375000       0.09375000 </v>
   <v>       0.15625000       0.09375000       0.09375000 </v>
   <v>       0.21875000       0.09375000       0.09375000 </v>
   <v>       0.28125000       0.09375000       0.09375000 </v>
   <v>       0.34375000       0.09375000       0.09375000 </v>
   <v>       0.40625000       0.09375000       0.09375000 </v>
   <v>       0.46875000       0.09375000       0.09375000 </v>
   <v>       0.15625000       0.15625000       0.09375000 </v>
   <v>       0.21875000       0.15625000       0.09375000 </v>
   <v>       0.28125000       0.15625000       0.09375000 </v>
   <v>       0.34375000       0.15625000       0.09375000 </v>
   <v>       0.40625000       0.15625000       0.09375000 </v>
   <v>       0.46875000       0.15625000       0.09375000 </v>
   <v>       0.21875000       0.21875000       0.09375000 </v>
   <v>       0.28125000       0.21875000       0.09375000 </v>
   <v>       0.34375000       0.21875000       0.09375000 </v>
   <v>       0.40625000       0.21875000       0.09375000 </v>
   <v>       0.46875000       0.21875000       0.09375000 </v>
   <v>       0.28125000       0.28125000       0.09375000 </v>
   <v>       0.34375000       0.28125000       0.09375000 </v>
   <v>       0.40625000       0.28125000       0.09375000 </v>
   <v>       0.46875000       0.28125000       0.09375000 </v>
   <v>       0.34375000       0.34375000       0.09375000 </v>
   <v>       0.40625000       0.34375000       0.09375000 </v>
   <v>       0.46875000       0.34375000       0.09375000 </v>
   <v>       0.40625000       0.40625000       0.09375000 </v>
   <v>       0.46875000       0.40625000       0.09375000 </v>
   <v>       0.46875000       0.46875000       0.09375000 </v>
   <v>       0.15625000       0.15625000       0.15625000 </v>
   <v>       0.21875000       0.15625000       0.15625000 </v>
   <v>       0.28125000       0.15625000       0.15625000 </v>
   <v>       0.34375000       0.15625000       0.15625000 </v>
   <v>       0.40625000       0.15625000       0.15625000 </v>
   <v>       0.46875000       0.15625000       0.15625000 </v>
   <v>       0.21875000       0.21875000       0.15625000 </v>
   <v>       0.28125000       0.21875000       0.15625000 </v>
   <v>       0.34375000       0.21875000       0.15625000 </v>
   <v>       0.40625000       0.21875000       0.15625000 </v>
   <v>       0.46875000       0.21875000       0.15625000 </v>
   <v>       0.28125000       0.28125000       0.15625000 </v>
   <v>       0.34375000       0.28125000       0.15625000 </v>
   <v>       0.40625000       0.28125000       0.15625000 </v>
   <v>       0.46875000       0.28125000       0.15625000 </v>
   <v>       0.34375000       0.34375000       0.15625000 </v>
   <v>       0.40625000       0.34375000       0.15625000 </v>
   <v>       0.46875000       0.34375000       0.15625000 </v>
   <v>       0.40625000       0.40625000       0.15625000 </v>
   <v>       0.46875000       0.40625000       0.15625000 </v>
   <v>       0.46875000       0.46875000       0.15625000 </v>
   <v>       0.21875000       0.21875000       0.21875000 </v>
   <v>       0.28125000       0.21875000       0.21875000 </v>
   <v>       0.34375000       0.21875000       0.21875000 </v>
   <v>       0.40625000       0.21875000       0.21875000 </v>
   <v>       0.46875000       0.21875000       0.21875000 </v>
   <v>       0.28125000       0.28125000       0.21875000 </v>
   <v>       0.34375000       0.28125000       0.21875000 </v>
   <v>       0.40625000       0.28125000       0.21875000 </v>
   <v>       0.46875000       0.28125000       0.21875000 </v>
   <v>       0.34375000       0.34375000       0.21875000 </v>
   <v>       0.40625000       0.34375000       0.21875000 </v>
   <v>       0.46875000       0.34375000       0.21875000 </v>
   <v>       0.40625000       0.40625000       0.21875000 </v>
   <v>       0.46875000       0.40625000       0.21875000 </v>
   <v>       0.46875000       0.46875000       0.21875000 </v>
   <v>       0.28125000       0.28125000       0.28125000 </v>
   <v>       0.34375000       0.28125000       0.28125000 </v>
   <v>       0.40625000       0.28125000       0.28125000 </v>
   <v>       0.46875000       0.28125000       0.28125000 </v>
   <v>       0.34375000       0.34375000       0.28125000 </v>
   <v>       0.40625000       0.34375000       0.28125000 </v>
   <v>       0.46875000       0.34375000       0.28125000 </v>
   <v>       0.40625000       0.40625000       0.28125000 </v>
   <v>       0.46875000       0.40625000       0.28125000 </v>
   <v>       0.46875000       0.46875000       0.28125000 </v>
   <v>       0.34375000       0.34375000       0.34375000 </v>
   <v>       0.40625000       0.34375000       0.34375000 </v>
   <v>       0.46875000       0.34375000       0.34375000 </v>
   <v>       0.40625000       0.40625000       0.34375000 </v>
   <v>       0.46875000       0.40625000       0.34375000 </v>
   <v>       0.46875000       0.46875000       0.34375000 </v>
   <v>       0.40625000       0.40625000       0.40625000 </v>
   <v>       0.46875000       0.40625000       0.40625000 </v>
   <v>       0.46875000       0.46875000       0.40625000 </v>
   <v>       0.46875000       0.46875000       0.46875000 </v>
  </varray>
  <varray name="weights" >
   <v>       0.00195312 </v>
   <v>       0.00585938 </v>
   <v>       0.00585938 </v>
   <v>       0.00585938 </v>
   <v>       0.00585938 </v>
   <v>       0.00585938 </v>
   <v>       0.00585938 </v>
   <v>       0.00585938 </v>
   <v>       0.00585938 </v>
   <v>       0.01171875 </v>
   <v>       0.01171875 </v>
   <v>       0.01171875 </v>
   <v>       0.01171875 </v>
   <v>       0.01171875 </v>
   <v>       0.01171875 </v>
   <v>       0.00585938 </v>
   <v>       0.01171875 </v>
   <v>       0.01171875 </v>
   <v>       0.01171875 </v>
   <v>       0.01171875 </v>
   <v>       0.01171875 </v>
   <v>       0.00585938 </v>
   <v>       0.01171875 </v>
   <v>       0.01171875 </v>
   <v>       0.01171875 </v>
   <v>       0.01171875 </v>
   <v>       0.00585938 </v>
   <v>       0.01171875 </v>
   <v>       0.01171875 </v>
   <v>       0.01171875 </v>
   <v>       0.00585938 </v>
   <v>       0.01171875 </v>
   <v>       0.01171875 </v>
   <v>       0.00585938 </v>
   <v>       0.01171875 </v>
   <v>       0.00585938 </v>
   <v>       0.00195312 </v>
   <v>       0.00585938 </v>
   <v>       0.00585938 </v>
   <v>       0.00585938 </v>
   <v>       0.00585938 </v>
   <v>       0.00585938 </v>
   <v>       0.00585938 </v>
   <v>       0.00585938 </v>
   <v>       0.01171875 </v>
   <v>       0.01171875 </v>
   <v>       0.01171875 </v>
   <v>       0.01171875 </v>
   <v>       0.01171875 </v>
   <v>       0.00585938 </v>
   <v>       0.01171875 </v>
   <v>       0.01171875 </v>
   <v>       0.01171875 </v>
   <v>       0.01171875 </v>
   <v>       0.00585938 </v>
   <v>       0.01171875 </v>
   <v>       0.01171875 </v>
   <v>       0.01171875 </v>
   <v>       0.00585938 </v>
   <v>       0.01171875 </v>
   <v>       0.01171875 </v>
   <v>       0.00585938 </v>
   <v>       0.01171875 </v>
   <v>       0.00585938 </v>
   <v>       0.00195312 </v>
   <v>       0.00585938 </v>
   <v>       0.00585938 </v>
   <v>       0.00585938 </v>
   <v>       0.00585938 </v>
   <v>       0.00585938 </v>
   <v>       0.00585938 </v>
   <v>       0.01171875 </v>
   <v>       0.01171875 </v>
   <v>       0.01171875 </v>
   <v>       0.01171875 </v>
   <v>       0.00585938 </v>
   <v>       0.01171875 </v>
   <v>       0.01171875 </v>
   <v>       0.01171875 </v>
   <v>       0.00585938 </v>
   <v>       0.01171875 </v>
   <v>       0.01171875 </v>
   <v>       0.00585938 </v>
   <v>       0.01171875 </v>
   <v>       0.00585938 </v>
   <v>       0.00195312 </v>
   <v>       0.00585938 </v>
   <v>       0.00585938 </v>
   <v>       0.00585938 </v>
   <v>       0.00585938 </v>
   <v>       0.00585938 </v>
   <v>       0.01171875 </v>
   <v>       0.01171875 </v>
   <v>       0.01171875 </v>
   <v>       0.00585938 </v>
   <v>       0.01171875 </v>
   <v>       0.01171875 </v>
   <v>       0.00585938 </v>
   <v>       0.01171875 </v>
   <v>       0.00585938 </v>
   <v>       0.00195312 </v>
   <v>       0.00585938 </v>
   <v>       0.00585938 </v>
   <v>       0.00585938 </v>
   <v>       0.00585938 </v>
   <v>       0.01171875 </v>
   <v>       0.01171875 </v>
   <v>       0.00585938 </v>
   <v>       0.01171875 </v>
   <v>       0.00585938 </v>
   <v>       0.00195312 </v>
   <v>       0.00585938 </v>
   <v>       0.00585938 </v>
   <v>       0.00585938 </v>
   <v>       0.01171875 </v>
   <v>       0.00585938 </v>
   <v>       0.00195312 </v>
   <v>       0.00585938 </v>
   <v>       0.00585938 </v>
   <v>       0.00195312 </v>
  </varray>
 </kpoints>
 <parameters>
  <separator name="general" >
   <i type="string" name="SYSTEM">Pt bulk calculation</i>
   <i type="logical" name="LCOMPAT"> F  </i>
  </separator>
  <separator name="electronic" >
   <i type="string" name="PREC">normal</i>
   <i name="ENMAX">    450.00000000</i>
   <i name="ENAUG">    358.96600000</i>
   <i name="EDIFF">      0.00000100</i>
   <i type="int" name="IALGO">    38</i>
   <i type="int" name="IWAVPR">    11</i>
   <i type="int" name="NBANDS">    24</i>
   <i name="NELECT">     40.00000000</i>
   <i type="int" name="TURBO">     0</i>
   <i type="int" name="IRESTART">     0</i>
   <i type="int" name="NREBOOT">     0</i>
   <i type="int" name="NMIN">     0</i>
   <i name="EREF">      0.00000000</i>
   <separator name="electronic smearing" >
    <i type="int" name="ISMEAR">     2</i>
    <i name="SIGMA">      0.20000000</i>
    <i name="KSPACING">      0.50000000</i>
    <i type="logical" name="KGAMMA"> T  </i>
   </separator>
   <separator name="electronic projectors" >
    <i type="logical" name="LREAL"> F  </i>
    <v name="ROPT">      0.00000000</v>
    <i type="int" name="LMAXPAW">  -100</i>
    <i type="int" name="LMAXMIX">     2</i>
    <i type="logical" name="NLSPLINE"> F  </i>
   </separator>
   <separator name="electronic startup" >
    <i type="int" name="ISTART">     0</i>
    <i type="int" name="ICHARG">     2</i>
    <i type="int" name="INIWAV">     1</i>
   </separator>
   <separator name="electronic spin" >
    <i type="int" name="ISPIN">     1</i>
    <i type="logical" name="LNONCOLLINEAR"> F  </i>
    <v name="MAGMOM">      1.00000000      1.00000000      1.00000000      1.00000000</v>
    <i name="NUPDOWN">     -1.00000000</i>
    <i type="logical" name="LSORBIT"> F  </i>
    <v name="SAXIS">      0.00000000      0.00000000      1.00000000</v>
    <i type="logical" name="LSPIRAL"> F  </i>
    <v name="QSPIRAL">      0.00000000      0.00000000      0.00000000</v>
    <i type="logical" name="LZEROZ"> F  </i>
   </separator>
   <separator name="electronic exchange-correlation" >
    <i type="logical" name="LASPH"> F  </i>
    <i type="logical" name="LMETAGGA"> F  </i>
   </separator>
   <separator name="electronic convergence" >
    <i type="int" name="NELM">    60</i>
    <i type="int" name="NELMDL">    -5</i>
    <i type="int" name="NELMIN">    10</i>
    <i name="ENINI">    450.00000000</i>
    <separator name="electronic convergence detail" >
     <i type="logical" name="LDIAG"> T  </i>
     <i type="logical" name="LSUBROT"> F  </i>
     <i name="WEIMIN">      0.00100000</i>
     <i name="EBREAK">      0.00000001</i>
     <i name="DEPER">      0.30000000</i>
     <i type="int" name="NRMM">     4</i>
     <i name="TIME">      0.40000000</i>
    </separator>
   </separator>
   <separator name="electronic mixer" >
    <i name="AMIX">      0.40000000</i>
    <i name="BMIX">      1.00000000</i>
    <i name="AMIN">      0.10000000</i>
    <i name="AMIX_MAG">      1.60000000</i>
    <i name="BMIX_MAG">      1.00000000</i>
    <separator name="electronic mixer details" >
     <i type="int" name="IMIX">     4</i>
     <i type="logical" name="MIXFIRST"> F  </i>
     <i type="int" name="MAXMIX">   -45</i>
     <i name="WC">    100.00000000</i>
     <i type="int" name="INIMIX">     1</i>
     <i type="int" name="MIXPRE">     1</i>
     <i type="int" name="MREMOVE">     5</i>
    </separator>
   </separator>
   <separator name="electronic dipolcorrection" >
    <i type="logical" name="LDIPOL"> F  </i>
    <i type="logical" name="LMONO"> F  </i>
    <i type="int" name="IDIPOL">     0</i>
    <i name="EPSILON">      1.00000000</i>
    <v name="DIPOL">   -100.00000000   -100.00000000   -100.00000000</v>
    <i name="EFIELD">      0.00000000</i>
   </separator>
  </separator>
  <separator name="grids" >
   <i type="int" name="NGX">    20</i>
   <i type="int" name="NGY">    20</i>
   <i type="int" name="NGZ">    20</i>
   <i type="int" name="NGXF">    40</i>
   <i type="int" name="NGYF">    40</i>
   <i type="int" name="NGZF">    40</i>
   <i type="logical" name="ADDGRID"> F  </i>
  </separator>
  <separator name="ionic" >
   <i type="int" name="NSW">    10</i>
   <i type="int" name="IBRION">     2</i>
   <i type="int" name="MDALGO">     0</i>
   <i type="int" name="ISIF">     2</i>
   <i name="PSTRESS">      0.00000000</i>
   <i name="EDIFFG">     -0.02000000</i>
   <i type="int" name="NFREE">     1</i>
   <i name="POTIM">      0.20000000</i>
   <i name="SMASS">     -3.00000000</i>
   <i name="SCALEE">      1.00000000</i>
  </separator>
  <separator name="ionic md" >
   <i name="TEBEG">      0.00010000</i>
   <i name="TEEND">      0.00010000</i>
   <i type="int" name="NBLOCK">     1</i>
   <i type="int" name="KBLOCK">    10</i>
   <i type="int" name="NPACO">   256</i>
   <i name="APACO">     16.00000000</i>
  </separator>
  <separator name="symmetry" >
   <i type="int" name="ISYM">     2</i>
   <i name="SYMPREC">      0.00001000</i>
  </separator>
  <separator name="dos" >
   <i type="int" name="LORBIT">     0</i>
   <v name="RWIGS">     -1.00000000</v>
   <i type="int" name="NEDOS">   301</i>
   <i name="EMIN">     10.00000000</i>
   <i name="EMAX">    -10.00000000</i>
   <i name="EFERMI">      0.00000000</i>
  </separator>
  <separator name="writing" >
   <i type="int" name="NWRITE">     2</i>
   <i type="logical" name="LWAVE"> T  </i>
   <i type="logical" name="LDOWNSAMPLE"> F  </i>
   <i type="logical" name="LCHARG"> T  </i>
   <i type="logical" name="LPARD"> F  </i>
   <i type="logical" name="LVTOT"> F  </i>
   <i type="logical" name="LVHAR"> F  </i>
   <i type="logical" name="LELF"> F  </i>
   <i type="logical" name="LOPTICS"> F  </i>
   <v name="STM">      0.00000000      0.00000000      0.00000000      0.00000000      0.00000000      0.00000000      0.00000000</v>
  </separator>
  <separator name="performance" >
   <i type="int" name="NPAR">     2</i>
   <i type="int" name="NSIM">     4</i>
   <i type="int" name="NBLK">    -1</i>
   <i type="logical" name="LPLANE"> T  </i>
   <i type="logical" name="LSCALAPACK"> F  </i>
   <i type="logical" name="LSCAAWARE"> F  </i>
   <i type="logical" name="LSCALU"> F  </i>
   <i type="logical" name="LASYNC"> F  </i>
   <i type="logical" name="LORBITALREAL"> F  </i>
  </separator>
  <separator name="miscellaneous" >
   <i type="int" name="IDIOT">     3</i>
   <i type="int" name="ISPECIAL">     0</i>
   <i type="logical" name="LMUSIC"> F  </i>
   <v name="POMASS">    195.08000000</v>
   <v name="DARWINR">      0.00000000</v>
   <v name="DARWINV">      1.00000000</v>
   <i type="logical" name="LCORR"> T  </i>
  </separator>
  <i type="logical" name="GGA_COMPAT"> T  </i>
  <i type="logical" name="LBERRY"> F  </i>
  <i type="int" name="ICORELEVEL">     0</i>
  <i type="logical" name="LDAU"> F  </i>
  <i type="int" name="I_CONSTRAINED_M">     0</i>
  <separator name="electronic exchange-correlation" >
   <i type="string" name="GGA">91</i>
   <i type="int" name="VOSKOWN">     0</i>
   <i type="logical" name="LHFCALC"> F  </i>
   <i type="string" name="PRECFOCK"></i>
   <i type="logical" name="LSYMGRAD"> F  </i>
   <i type="logical" name="LHFONE"> F  </i>
   <i type="logical" name="LRHFCALC"> F  </i>
   <i type="logical" name="LTHOMAS"> F  </i>
   <i type="logical" name="LMODELHF"> F  </i>
   <i name="ENCUT4O">     -1.00000000</i>
   <i type="int" name="EXXOEP">     0</i>
   <i type="int" name="FOURORBIT">     0</i>
   <i name="AEXX">      0.00000000</i>
   <i name="HFALPHA">      0.00000000</i>
   <i name="MCALPHA">      0.00000000</i>
   <i name="ALDAX">      1.00000000</i>
   <i name="AGGAX">      1.00000000</i>
   <i name="ALDAC">      1.00000000</i>
   <i name="AGGAC">      1.00000000</i>
   <i type="int" name="NKREDX">     1</i>
   <i type="int" name="NKREDY">     1</i>
   <i type="int" name="NKREDZ">     1</i>
   <i type="logical" name="SHIFTRED"> F  </i>
   <i type="logical" name="ODDONLY"> F  </i>
   <i type="logical" name="EVENONLY"> F  </i>
   <i type="int" name="LMAXFOCK">     0</i>
   <i type="int" name="NMAXFOCKAE">     0</i>
   <i type="logical" name="LFOCKAEDFT"> F  </i>
   <i name="HFSCREEN">      0.00000000</i>
   <i name="HFSCREENC">      0.00000000</i>
   <i type="int" name="NBANDSGWLOW">     0</i>
  </separator>
  <separator name="vdW DFT" >
   <i type="logical" name="LUSE_VDW"> F  </i>
   <i name="Zab_VDW">     -0.84910000</i>
   <i name="PARAM1">      0.12340000</i>
   <i name="PARAM2">      1.00000000</i>
   <i name="PARAM3">      0.00000000</i>
  </separator>
  <separator name="model GW" >
   <i type="int" name="MODEL_GW">     0</i>
   <i name="MODEL_EPS0">      9.10476855</i>
   <i name="MODEL_ALPHA">      1.00000000</i>
  </separator>
  <separator name="linear response parameters" >
   <i type="logical" name="LEPSILON"> F  </i>
   <i type="logical" name="LRPA"> F  </i>
   <i type="logical" name="LNABLA"> F  </i>
   <i type="logical" name="LVEL"> F  </i>
   <i type="int" name="KINTER">     0</i>
   <i name="CSHIFT">      0.10000000</i>
   <i name="OMEGAMAX">     -1.00000000</i>
   <i name="DEG_THRESHOLD">      0.00200000</i>
   <i name="RTIME">     -0.10000000</i>
   <i name="WPLASMAI">      0.00000000</i>
   <v name="DFIELD">      0.00000000      0.00000000      0.00000000</v>
   <v name="WPLASMA">      0.00000000      0.00000000      0.00000000      0.00000000      0.00000000      0.00000000      0.00000000      0.00000000      0.00000000</v>
  </separator>
  <separator name="orbital magnetization" >
   <i type="logical" name="NUCIND"> F  </i>
   <v name="MAGPOS">      0.00000000      0.00000000      0.00000000</v>
   <i type="logical" name="LNICSALL"> T  </i>
   <i type="logical" name="ORBITALMAG"> F  </i>
   <i type="logical" name="LMAGBLOCH"> F  </i>
   <i type="logical" name="LCHIMAG"> F  </i>
   <i type="logical" name="LGAUGE"> T  </i>
   <i type="int" name="MAGATOM">     0</i>
   <v name="MAGDIPOL">      0.00000000      0.00000000      0.00000000</v>
   <v name="AVECCONST">      0.00000000      0.00000000      0.00000000</v>
  </separator>
  <separator name="response functions" >
   <i type="logical" name="LADDER"> F  </i>
   <i type="logical" name="LRPAFORCE"> F  </i>
   <i type="logical" name="LFXC"> F  </i>
   <i type="logical" name="LHARTREE"> T  </i>
   <i type="int" name="IBSE">     0</i>
   <v type="int" name="KPOINT">    -1     0     0     0</v>
   <i type="logical" name="LTCTE"> F  </i>
   <i type="logical" name="LTETE"> F  </i>
   <i type="logical" name="LTRIPLET"> F  </i>
   <i type="logical" name="LFXCEPS"> F  </i>
   <i type="logical" name="LFXHEG"> F  </i>
   <i type="int" name="NATURALO">     2</i>
   <i type="logical" name="L2ORDER"> F  </i>
   <i type="logical" name="LMP2LT"> F  </i>
   <i type="logical" name="LUSEW"> F  </i>
   <i name="ENCUTGW">     -2.00000000</i>
   <i name="ENCUTGWSOFT">     -2.00000000</i>
   <i name="ENCUTLF">     -1.00000000</i>
   <i type="int" name="LMAXMP2">    -1</i>
   <i name="SCISSOR">      0.00000000</i>
   <i type="int" name="NOMEGA">     0</i>
   <i type="int" name="NOMEGAR">     0</i>
   <i type="int" name="NBANDSGW">    -1</i>
   <i type="int" name="NBANDSO">    -1</i>
   <i type="int" name="NBANDSV">    -1</i>
   <i type="int" name="NELM">     1</i>
   <i type="int" name="NELMHF">     1</i>
   <i type="int" name="DIM">     3</i>
   <i type="int" name="ANTIRES">     0</i>
   <i name="OMEGAMAX">    -30.00000000</i>
   <i name="OMEGAMIN">    -30.00000000</i>
   <i name="OMEGATL">   -200.00000000</i>
   <i type="int" name="OMEGAGRID">   140</i>
   <i name="CSHIFT">     -0.10000000</i>
   <i type="logical" name="SELFENERGY"> F  </i>
   <i type="logical" name="LSPECTRAL"> F  </i>
   <i type="logical" name="LSPECTRALGW"> F  </i>
   <i type="logical" name="LSINGLES"> F  </i>
   <i type="logical" name="LFERMIGW"> F  </i>
   <i type="logical" name="ODDONLYGW"> F  </i>
   <i type="logical" name="EVENONLYGW"> F  </i>
   <i type="int" name="NKREDLFX">     1</i>
   <i type="int" name="NKREDLFY">     1</i>
   <i type="int" name="NKREDLFZ">     1</i>
   <i type="int" name="MAXMEM">  2800</i>
   <i type="int" name="TELESCOPE">     0</i>
   <i type="int" name="TAUPAR">     1</i>
   <i type="int" name="OMEGAPAR">    -1</i>
   <i name="LAMBDA">      1.00000000</i>
  </separator>
  <separator name="External order field" >
   <i name="OFIELD_KAPPA">      0.00000000</i>
   <v name="OFIELD_K">      0.00000000      0.00000000      0.00000000</v>
   <i name="OFIELD_Q6_NEAR">      0.00000000</i>
   <i name="OFIELD_Q6_FAR">      0.00000000</i>
   <i name="OFIELD_A">      0.00000000</i>
  </separator>
 </parameters>
 <atominfo>
  <atoms>       4 </atoms>
  <types>       1 </types>
  <array name="atoms" >
   <dimension dim="1">ion</dimension>
   <field type="string">element</field>
   <field type="int">atomtype</field>
   <set>
    <rc><c>Pt</c><c>   1</c></rc>
    <rc><c>Pt</c><c>   1</c></rc>
    <rc><c>Pt</c><c>   1</c></rc>
    <rc><c>Pt</c><c>   1</c></rc>
   </set>
  </array>
  <array name="atomtypes" >
   <dimension dim="1">type</dimension>
   <field type="int">atomspertype</field>
   <field type="string">element</field>
   <field>mass</field>
   <field>valence</field>
   <field type="string">pseudopotential</field>
   <set>
    <rc><c>   4</c><c>Pt</c><c>    195.08000000</c><c>     10.00000000</c><c> PAW_PBE Pt 05Jan2001                   </c></rc>
   </set>
  </array>
 </atominfo>
 <structure name="initialpos" >
  <crystal>
   <varray name="basis" >
    <v>       3.93000000       0.00000000       0.00000000 </v>
    <v>       0.00000000       3.93000000       0.00000000 </v>
    <v>       0.00000000       0.00000000       3.93000000 </v>
   </varray>
   <i name="volume">     60.69845700 </i>
   <varray name="rec_basis" >
    <v>       0.25445293       0.00000000       0.00000000 </v>
    <v>       0.00000000       0.25445293       0.00000000 </v>
    <v>       0.00000000       0.00000000       0.25445293 </v>
   </varray>
  </crystal>
  <varray name="positions" >
   <v>       0.00000000       0.00000000       0.00000000 </v>
   <v>       0.00000000       0.50000000       0.50000000 </v>
   <v>       0.50000000       0.00000000       0.50000000 </v>
   <v>       0.50000000       0.50000000       0.00000000 </v>
  </varray>
 </structure>
 <calculation>
  <scstep>
   <time name="dav">    1.01    1.01</time>
   <time name="total">    1.03    1.09</time>
   <energy>
    <i name="alphaZ">    383.52284309 </i>
    <i name="ewald">  -3359.84930062 </i>
    <i name="hartreedc">   -288.29773952 </i>
    <i name="XCdc">     14.13454436 </i>
    <i name="pawpsdc">   2293.79710215 </i>
    <i name="pawaedc">  -2181.03440391 </i>
    <i name="eentropy">      0.00012294 </i>
    <i name="bandstr">    668.79659135 </i>
    <i name="atom">   2915.53815049 </i>
    <i name="e_fr_energy">    446.60791034 </i>
    <i name="e_wo_entrp">    446.60778740 </i>
    <i name="e_0_energy">    446.60787961 </i>
   </energy>
  </scstep>
  <scstep>
   <time name="dav">    0.98    0.98</time>
   <time name="total">    0.99    0.99</time>
   <energy>
    <i name="e_fr_energy">      3.67825980 </i>
    <i name="e_wo_entrp">      3.67395394 </i>
    <i name="e_0_energy">      3.67718333 </i>
   </energy>
  </scstep>
  <scstep>
   <time name="dav">    1.27    1.27</time>
   <time name="total">    1.28    1.28</time>
   <energy>
    <i name="e_fr_energy">    -25.09359132 </i>
    <i name="e_wo_entrp">    -25.09186017 </i>
    <i name="e_0_energy">    -25.09315853 </i>
   </energy>
  </scstep>
  <scstep>
   <time name="dav">    1.04    1.04</time>
   <time name="total">    1.05    1.05</time>
   <energy>
    <i name="e_fr_energy">    -25.94143081 </i>
    <i name="e_wo_entrp">    -25.94089365 </i>
    <i name="e_0_energy">    -25.94129652 </i>
   </energy>
  </scstep>
  <scstep>
   <time name="dav">    1.22    1.22</time>
   <time name="total">    1.28    1.28</time>
   <energy>
    <i name="e_fr_energy">    -25.96576177 </i>
    <i name="e_wo_entrp">    -25.96529896 </i>
    <i name="e_0_energy">    -25.96564607 </i>
   </energy>
  </scstep>
  <scstep>
   <time name="dav">    1.17    1.17</time>
   <time name="total">    1.24    1.24</time>
   <energy>
    <i name="e_fr_energy">    -24.48288912 </i>
    <i name="e_wo_entrp">    -24.47764465 </i>
    <i name="e_0_energy">    -24.48157801 </i>
   </energy>
  </scstep>
  <scstep>
   <time name="dav">    1.41    1.41</time>
   <time name="total">    1.49    1.49</time>
   <energy>
    <i name="e_fr_energy">    -24.33670017 </i>
    <i name="e_wo_entrp">    -24.33123948 </i>
    <i name="e_0_energy">    -24.33533499 </i>
   </energy>
  </scstep>
  <scstep>
   <time name="dav">    1.05    1.05</time>
   <time name="total">    1.12    1.12</time>
   <energy>
    <i name="e_fr_energy">    -24.32063405 </i>
    <i name="e_wo_entrp">    -24.31527701 </i>
    <i name="e_0_energy">    -24.31929479 </i>
   </energy>
  </scstep>
  <scstep>
   <time name="dav">    1.27    1.27</time>
   <time name="total">    1.35    1.35</time>
   <energy>
    <i name="e_fr_energy">    -24.32033019 </i>
    <i name="e_wo_entrp">    -24.31495497 </i>
    <i name="e_0_energy">    -24.31898638 </i>
   </energy>
  </scstep>
  <scstep>
   <time name="dav">    1.11    1.11</time>
   <time name="total">    1.19    1.19</time>
   <energy>
    <i name="e_fr_energy">    -24.32034972 </i>
    <i name="e_wo_entrp">    -24.31498362 </i>
    <i name="e_0_energy">    -24.31900819 </i>
   </energy>
  </scstep>
  <scstep>
   <time name="dav">    0.85    0.85</time>
   <time name="total">    0.92    0.92</time>
   <energy>
    <i name="e_fr_energy">    -24.32035241 </i>
    <i name="e_wo_entrp">    -24.31498673 </i>
    <i name="e_0_energy">    -24.31901099 </i>
   </energy>
  </scstep>
  <scstep>
   <time name="dav">    0.69    0.69</time>
   <time name="total">    0.70    0.70</time>
   <energy>
    <i name="alphaZ">    383.52284309 </i>
    <i name="ewald">  -3359.84930062 </i>
    <i name="hartreedc">   -248.06007180 </i>
    <i name="XCdc">     12.58208386 </i>
    <i name="pawpsdc">   2408.68290873 </i>
    <i name="pawaedc">  -2306.51319809 </i>
    <i name="eentropy">     -0.00536559 </i>
    <i name="bandstr">    169.78159768 </i>
    <i name="atom">   2915.53815049 </i>
    <i name="e_fr_energy">    -24.32035224 </i>
    <i name="e_wo_entrp">    -24.31498665 </i>
    <i name="e_0_energy">    -24.31901084 </i>
   </energy>
  </scstep>
  <structure>
   <crystal>
    <varray name="basis" >
     <v>       3.93000000       0.00000000       0.00000000 </v>
     <v>       0.00000000       3.93000000       0.00000000 </v>
     <v>       0.00000000       0.00000000       3.93000000 </v>
    </varray>
    <i name="volume">     60.69845700 </i>
    <varray name="rec_basis" >
     <v>       0.25445293       0.00000000       0.00000000 </v>
     <v>       0.00000000       0.25445293       0.00000000 </v>
     <v>       0.00000000       0.00000000       0.25445293 </v>
    </varray>
   </crystal>
   <varray name="positions" >
    <v>       0.00000000       0.00000000       0.00000000 </v>
    <v>       0.00000000       0.50000000       0.50000000 </v>
    <v>       0.50000000       0.00000000       0.50000000 </v>
    <v>       0.50000000       0.50000000       0.00000000 </v>
   </varray>
  </structure>
  <varray name="forces" >
   <v>       0.00000000       0.00000000      -0.00000000 </v>
   <v>      -0.00000000      -0.00000000       0.00000000 </v>
   <v>      -0.00000000      -0.00000000       0.00000000 </v>
   <v>       0.00000000       0.00000000      -0.00000000 </v>
  </varray>
  <varray name="stress" >
   <v>     123.05603459       0.00000000       0.00000000 </v>
   <v>      -0.00000000     123.05603459      -0.00000000 </v>
   <v>       0.00000000      -0.00000000     123.05603459 </v>
  </varray>
  <energy>
   <i name="e_fr_energy">    -24.32035224 </i>
   <i name="e_wo_entrp">    -24.31901084 </i>
   <i name="e_0_energy">     -0.00536559 </i>
  </energy>
  <time name="totalsc">   14.72   16.23</time>
  <eigenvalues>
   <array>
    <dimension dim="1">band</dimension>
    <dimension dim="2">kpoint</dimension>
    <dimension dim="3">spin</dimension>
    <field>eigene</field>
    <field>occ</field>
    <set>
     <set comment="spin 1">
      <set comment="kpoint 1">
       <r>   -2.2385    1.0000 </r>
       <r>    0.8452    1.0000 </r>
       <r>    0.8452    1.0000 </r>
       <r>    0.8452    1.0000 </r>
       <r>    1.2847    1.0000 </r>
       <r>    1.2847    1.0000 </r>
       <r>    1.2847    1.0000 </r>
       <r>    4.0528    1.0000 </r>
       <r>    4.0867    1.0000 </r>
       <r>    4.0867    1.0000 </r>
       <r>    6.2115    1.0000 </r>
       <r>    6.2115    1.0000 </r>
       <r>    7.8173    0.6307 </r>
       <r>    7.8173    0.6307 </r>
       <r>    7.8173    0.6307 </r>
       <r>    8.0926   -0.0329 </r>
       <r>    8.0926   -0.0329 </r>
       <r>    8.0926   -0.0329 </r>
       <r>    8.3058    0.0034 </r>
       <r>    8.3058    0.0034 </r>
       <r>    8.3058    0.0034 </r>
       <r>    9.8803    0.0000 </r>
       <r>    9.8803    0.0000 </r>
       <r>    9.8803    0.0000 </r>
      </set>
      <set comment="kpoint 2">
       <r>   -2.1339    1.0000 </r>
       <r>    0.8861    1.0000 </r>
       <r>    0.9215    1.0000 </r>
       <r>    0.9215    1.0000 </r>
       <r>    1.3278    1.0000 </r>
       <r>    1.3515    1.0000 </r>
       <r>    1.3515    1.0000 </r>
       <r>    3.9897    1.0000 </r>
       <r>    4.1360    1.0000 </r>
       <r>    4.1401    1.0000 </r>
       <r>    6.1358    1.0000 </r>
       <r>    6.2405    1.0000 </r>
       <r>    7.5015    0.9999 </r>
       <r>    7.5015    0.9999 </r>
       <r>    7.7126    1.0055 </r>
       <r>    7.7126    1.0055 </r>
       <r>    7.7682    0.8534 </r>
       <r>    7.9121    0.1636 </r>
       <r>    8.1851    0.0005 </r>
       <r>    8.2986    0.0036 </r>
       <r>    8.2986    0.0036 </r>
       <r>    9.3835    0.0000 </r>
       <r>   10.5236    0.0000 </r>
       <r>   10.5236    0.0000 </r>
      </set>
      <set comment="kpoint 3">
       <r>   -1.9274    1.0000 </r>
       <r>    0.9600    1.0000 </r>
       <r>    1.0698    1.0000 </r>
       <r>    1.0698    1.0000 </r>
       <r>    1.4131    1.0000 </r>
       <r>    1.4845    1.0000 </r>
       <r>    1.4845    1.0000 </r>
       <r>    3.8593    1.0000 </r>
       <r>    4.2431    1.0000 </r>
       <r>    4.2465    1.0000 </r>
       <r>    5.9904    1.0000 </r>
       <r>    6.2978    1.0000 </r>
       <r>    6.7876    1.0000 </r>
       <r>    6.7876    1.0000 </r>
       <r>    7.4916    0.9983 </r>
       <r>    7.4916    0.9983 </r>
       <r>    7.5399    1.0101 </r>
       <r>    7.6550    1.0515 </r>
       <r>    7.9790   -0.0163 </r>
       <r>    8.2973    0.0037 </r>
       <r>    8.2973    0.0037 </r>
       <r>    8.6556    0.0000 </r>
       <r>   11.3447    0.0000 </r>
       <r>   11.3447    0.0000 </r>
      </set>
      <set comment="kpoint 4">
       <r>   -1.6241    1.0000 </r>
       <r>    1.0493    1.0000 </r>
       <r>    1.2808    1.0000 </r>
       <r>    1.2808    1.0000 </r>
       <r>    1.5389    1.0000 </r>
       <r>    1.6829    1.0000 </r>
       <r>    1.6829    1.0000 </r>
       <r>    3.6746    1.0000 </r>
       <r>    4.4025    1.0000 </r>
       <r>    4.4049    1.0000 </r>
       <r>    5.7882    1.0000 </r>
       <r>    6.0683    1.0000 </r>
       <r>    6.0683    1.0000 </r>
       <r>    6.3816    1.0000 </r>
       <r>    6.9543    1.0000 </r>
       <r>    7.1834    0.9999 </r>
       <r>    7.1834    0.9999 </r>
       <r>    7.4323    0.9951 </r>
       <r>    7.7665    0.8594 </r>
       <r>    7.9620    0.0133 </r>
       <r>    8.2971    0.0037 </r>
       <r>    8.2971    0.0037 </r>
       <r>   12.2124    0.0000 </r>
       <r>   12.2124    0.0000 </r>
      </set>
      <set comment="kpoint 5">
       <r>   -1.2334    1.0000 </r>
       <r>    1.1219    1.0000 </r>
       <r>    1.5385    1.0000 </r>
       <r>    1.5385    1.0000 </r>
       <r>    1.7027    1.0000 </r>
       <r>    1.9443    1.0000 </r>
       <r>    1.9443    1.0000 </r>
       <r>    3.4480    1.0000 </r>
       <r>    4.6090    1.0000 </r>
       <r>    4.6138    1.0000 </r>
       <r>    5.3770    1.0000 </r>
       <r>    5.3770    1.0000 </r>
       <r>    5.5513    1.0000 </r>
       <r>    6.2331    1.0000 </r>
       <r>    6.4898    1.0000 </r>
       <r>    6.8155    1.0000 </r>
       <r>    6.8155    1.0000 </r>
       <r>    7.0926    1.0000 </r>
       <r>    7.3923    0.9961 </r>
       <r>    7.5921    1.0329 </r>
       <r>    8.2973    0.0037 </r>
       <r>    8.2973    0.0037 </r>
       <r>   13.0837    0.0000 </r>
       <r>   13.0837    0.0000 </r>
      </set>
      <set comment="kpoint 6">
       <r>   -0.7711    1.0000 </r>
       <r>    1.1254    1.0000 </r>
       <r>    1.8160    1.0000 </r>
       <r>    1.8160    1.0000 </r>
       <r>    1.9009    1.0000 </r>
       <r>    2.2653    1.0000 </r>
       <r>    2.2653    1.0000 </r>
       <r>    3.1927    1.0000 </r>
       <r>    4.7263    1.0000 </r>
       <r>    4.7263    1.0000 </r>
       <r>    4.8414    1.0000 </r>
       <r>    4.8709    1.0000 </r>
       <r>    5.3253    1.0000 </r>
       <r>    5.5580    1.0000 </r>
       <r>    6.4341    1.0000 </r>
       <r>    6.4341    1.0000 </r>
       <r>    6.6191    1.0000 </r>
       <r>    6.6976    1.0000 </r>
       <r>    6.8931    1.0000 </r>
       <r>    7.4279    0.9951 </r>
       <r>    8.2977    0.0037 </r>
       <r>    8.2977    0.0037 </r>
       <r>   13.9144    0.0000 </r>
       <r>   13.9144    0.0000 </r>
      </set>
      <set comment="kpoint 7">
       <r>   -0.2633    1.0000 </r>
       <r>    0.9945    1.0000 </r>
       <r>    2.0669    1.0000 </r>
       <r>    2.0669    1.0000 </r>
       <r>    2.1286    1.0000 </r>
       <r>    2.6431    1.0000 </r>
       <r>    2.6431    1.0000 </r>
       <r>    2.9218    1.0000 </r>
       <r>    4.1234    1.0000 </r>
       <r>    4.1234    1.0000 </r>
       <r>    4.9317    1.0000 </r>
       <r>    5.0717    1.0000 </r>
       <r>    5.1728    1.0000 </r>
       <r>    5.3134    1.0000 </r>
       <r>    6.1042    1.0000 </r>
       <r>    6.1042    1.0000 </r>
       <r>    6.2893    1.0000 </r>
       <r>    6.4306    1.0000 </r>
       <r>    6.7656    1.0000 </r>
       <r>    7.2608    0.9995 </r>
       <r>    8.2980    0.0037 </r>
       <r>    8.2980    0.0037 </r>
       <r>   14.5619    0.0000 </r>
       <r>   14.5619    0.0000 </r>
      </set>
      <set comment="kpoint 8">
       <r>    0.2464    1.0000 </r>
       <r>    0.6907    1.0000 </r>
       <r>    2.2229    1.0000 </r>
       <r>    2.2229    1.0000 </r>
       <r>    2.3799    1.0000 </r>
       <r>    2.6473    1.0000 </r>
       <r>    3.0776    1.0000 </r>
       <r>    3.0776    1.0000 </r>
       <r>    3.5740    1.0000 </r>
       <r>    3.5740    1.0000 </r>
       <r>    4.8311    1.0000 </r>
       <r>    4.8396    1.0000 </r>
       <r>    5.5149    1.0000 </r>
       <r>    5.6153    1.0000 </r>
       <r>    5.8903    1.0000 </r>
       <r>    5.9064    1.0000 </r>
       <r>    5.9064    1.0000 </r>
       <r>    6.0016    1.0000 </r>
       <r>    6.9248    1.0000 </r>
       <r>    7.0916    1.0000 </r>
       <r>    8.2983    0.0037 </r>
       <r>    8.2983    0.0037 </r>
       <r>   14.7694    0.0000 </r>
       <r>   14.7694    0.0000 </r>
      </set>
      <set comment="kpoint 9">
       <r>   -2.0309    1.0000 </r>
       <r>    0.9630    1.0000 </r>
       <r>    0.9630    1.0000 </r>
       <r>    0.9878    1.0000 </r>
       <r>    1.3937    1.0000 </r>
       <r>    1.3937    1.0000 </r>
       <r>    1.4245    1.0000 </r>
       <r>    3.9545    1.0000 </r>
       <r>    4.1609    1.0000 </r>
       <r>    4.1867    1.0000 </r>
       <r>    6.1150    1.0000 </r>
       <r>    6.2221    1.0000 </r>
       <r>    7.1632    1.0000 </r>
       <r>    7.2710    0.9994 </r>
       <r>    7.2710    0.9994 </r>
       <r>    7.5911    1.0324 </r>
       <r>    7.6890    1.0359 </r>
       <r>    7.6890    1.0359 </r>
       <r>    8.1837    0.0002 </r>
       <r>    8.1837    0.0002 </r>
       <r>    8.2303    0.0047 </r>
       <r>   10.0395    0.0000 </r>
       <r>   10.0395    0.0000 </r>
       <r>   11.0022    0.0000 </r>
      </set>
      <set comment="kpoint 10">
       <r>   -1.8272    1.0000 </r>
       <r>    1.0381    1.0000 </r>
       <r>    1.1126    1.0000 </r>
       <r>    1.1177    1.0000 </r>
       <r>    1.4773    1.0000 </r>
       <r>    1.5251    1.0000 </r>
       <r>    1.5684    1.0000 </r>
       <r>    3.8445    1.0000 </r>
       <r>    4.2521    1.0000 </r>
       <r>    4.2812    1.0000 </r>
       <r>    5.9945    1.0000 </r>
       <r>    6.2702    1.0000 </r>
       <r>    6.5573    1.0000 </r>
       <r>    6.5954    1.0000 </r>
       <r>    6.8785    1.0000 </r>
       <r>    7.3899    0.9962 </r>
       <r>    7.4912    0.9982 </r>
       <r>    7.5696    1.0222 </r>
       <r>    7.9883   -0.0283 </r>
       <r>    8.1752   -0.0015 </r>
       <r>    8.1885    0.0010 </r>
       <r>    9.3298    0.0000 </r>
       <r>   10.8281    0.0000 </r>
       <r>   11.7161    0.0000 </r>
      </set>
      <set comment="kpoint 11">
       <r>   -1.5283    1.0000 </r>
       <r>    1.1292    1.0000 </r>
       <r>    1.3059    1.0000 </r>
       <r>    1.3258    1.0000 </r>
       <r>    1.6006    1.0000 </r>
       <r>    1.7208    1.0000 </r>
       <r>    1.7779    1.0000 </r>
       <r>    3.6721    1.0000 </r>
       <r>    4.4050    1.0000 </r>
       <r>    4.4187    1.0000 </r>
       <r>    5.8095    1.0000 </r>
       <r>    5.8516    1.0000 </r>
       <r>    5.9552    1.0000 </r>
       <r>    6.3549    1.0000 </r>
       <r>    6.3631    1.0000 </r>
       <r>    7.1069    1.0000 </r>
       <r>    7.2061    0.9999 </r>
       <r>    7.3337    0.9982 </r>
       <r>    7.7573    0.8925 </r>
       <r>    8.1685   -0.0030 </r>
       <r>    8.1686   -0.0030 </r>
       <r>    8.6170    0.0000 </r>
       <r>   11.6297    0.0000 </r>
       <r>   12.5218    0.0000 </r>
      </set>
      <set comment="kpoint 12">
       <r>   -1.1431    1.0000 </r>
       <r>    1.2033    1.0000 </r>
       <r>    1.5441    1.0000 </r>
       <r>    1.5869    1.0000 </r>
       <r>    1.7609    1.0000 </r>
       <r>    1.9786    1.0000 </r>
       <r>    2.0425    1.0000 </r>
       <r>    3.4555    1.0000 </r>
       <r>    4.5839    1.0000 </r>
       <r>    4.6123    1.0000 </r>
       <r>    5.1795    1.0000 </r>
       <r>    5.3112    1.0000 </r>
       <r>    5.6025    1.0000 </r>
       <r>    5.7637    1.0000 </r>
       <r>    6.4866    1.0000 </r>
       <r>    6.7640    1.0000 </r>
       <r>    6.8580    1.0000 </r>
       <r>    7.0018    1.0000 </r>
       <r>    7.4705    0.9961 </r>
       <r>    8.0364   -0.0516 </r>
       <r>    8.1594   -0.0054 </r>
       <r>    8.1639   -0.0042 </r>
       <r>   12.3963    0.0000 </r>
       <r>   13.3522    0.0000 </r>
      </set>
      <set comment="kpoint 13">
       <r>   -0.6869    1.0000 </r>
       <r>    1.2072    1.0000 </r>
       <r>    1.8163    1.0000 </r>
       <r>    1.8697    1.0000 </r>
       <r>    1.9546    1.0000 </r>
       <r>    2.2940    1.0000 </r>
       <r>    2.3459    1.0000 </r>
       <r>    3.2096    1.0000 </r>
       <r>    4.5531    1.0000 </r>
       <r>    4.6918    1.0000 </r>
       <r>    4.7306    1.0000 </r>
       <r>    4.8646    1.0000 </r>
       <r>    5.2111    1.0000 </r>
       <r>    5.4500    1.0000 </r>
       <r>    6.4056    1.0000 </r>
       <r>    6.4888    1.0000 </r>
       <r>    6.6220    1.0000 </r>
       <r>    6.6356    1.0000 </r>
       <r>    7.0602    1.0000 </r>
       <r>    7.6617    1.0505 </r>
       <r>    8.1556   -0.0065 </r>
       <r>    8.1607   -0.0050 </r>
       <r>   13.0778    0.0000 </r>
       <r>   14.1224    0.0000 </r>
      </set>
      <set comment="kpoint 14">
       <r>   -0.1848    1.0000 </r>
       <r>    1.0737    1.0000 </r>
       <r>    2.0856    1.0000 </r>
       <r>    2.1277    1.0000 </r>
       <r>    2.1767    1.0000 </r>
       <r>    2.6629    1.0000 </r>
       <r>    2.6734    1.0000 </r>
       <r>    2.9475    1.0000 </r>
       <r>    3.9827    1.0000 </r>
       <r>    4.1118    1.0000 </r>
       <r>    4.7404    1.0000 </r>
       <r>    4.8141    1.0000 </r>
       <r>    5.1581    1.0000 </r>
       <r>    5.5045    1.0000 </r>
       <r>    6.0982    1.0000 </r>
       <r>    6.1591    1.0000 </r>
       <r>    6.2301    1.0000 </r>
       <r>    6.5950    1.0000 </r>
       <r>    6.8056    1.0000 </r>
       <r>    7.4090    0.9956 </r>
       <r>    8.1546   -0.0068 </r>
       <r>    8.1584   -0.0057 </r>
       <r>   13.6166    0.0000 </r>
       <r>   14.3845    0.0000 </r>
      </set>
      <set comment="kpoint 15">
       <r>    0.3214    1.0000 </r>
       <r>    0.7663    1.0000 </r>
       <r>    2.2724    1.0000 </r>
       <r>    2.2868    1.0000 </r>
       <r>    2.4214    1.0000 </r>
       <r>    2.6813    1.0000 </r>
       <r>    3.0303    1.0000 </r>
       <r>    3.0777    1.0000 </r>
       <r>    3.4863    1.0000 </r>
       <r>    3.5842    1.0000 </r>
       <r>    4.6383    1.0000 </r>
       <r>    4.6515    1.0000 </r>
       <r>    5.4875    1.0000 </r>
       <r>    5.7763    1.0000 </r>
       <r>    5.8475    1.0000 </r>
       <r>    5.9244    1.0000 </r>
       <r>    5.9475    1.0000 </r>
       <r>    6.1558    1.0000 </r>
       <r>    6.9925    1.0000 </r>
       <r>    7.1930    0.9999 </r>
       <r>    8.1551   -0.0067 </r>
       <r>    8.1565   -0.0063 </r>
       <r>   13.9853    0.0000 </r>
       <r>   14.2268    0.0000 </r>
      </set>
      <set comment="kpoint 16">
       <r>   -1.6294    1.0000 </r>
       <r>    1.1903    1.0000 </r>
       <r>    1.1903    1.0000 </r>
       <r>    1.2168    1.0000 </r>
       <r>    1.6053    1.0000 </r>
       <r>    1.6053    1.0000 </r>
       <r>    1.7279    1.0000 </r>
       <r>    3.7796    1.0000 </r>
       <r>    4.3069    1.0000 </r>
       <r>    4.3508    1.0000 </r>
       <r>    5.9448    1.0000 </r>
       <r>    6.1744    1.0000 </r>
       <r>    6.1744    1.0000 </r>
       <r>    6.2206    1.0000 </r>
       <r>    6.2790    1.0000 </r>
       <r>    7.2076    0.9999 </r>
       <r>    7.4187    0.9953 </r>
       <r>    7.4187    0.9953 </r>
       <r>    7.9601    0.0174 </r>
       <r>    7.9601    0.0174 </r>
       <r>    8.0723   -0.0422 </r>
       <r>   10.0843    0.0000 </r>
       <r>   10.0843    0.0000 </r>
       <r>   12.3257    0.0000 </r>
      </set>
      <set comment="kpoint 17">
       <r>   -1.3390    1.0000 </r>
       <r>    1.2849    1.0000 </r>
       <r>    1.3699    1.0000 </r>
       <r>    1.4078    1.0000 </r>
       <r>    1.7235    1.0000 </r>
       <r>    1.7960    1.0000 </r>
       <r>    1.9492    1.0000 </r>
       <r>    3.6461    1.0000 </r>
       <r>    4.4330    1.0000 </r>
       <r>    4.4480    1.0000 </r>
       <r>    5.4955    1.0000 </r>
       <r>    5.7015    1.0000 </r>
       <r>    5.7232    1.0000 </r>
       <r>    5.8099    1.0000 </r>
       <r>    6.3708    1.0000 </r>
       <r>    6.9592    1.0000 </r>
       <r>    7.1804    0.9999 </r>
       <r>    7.2300    0.9998 </r>
       <r>    7.6952    1.0297 </r>
       <r>    7.9364    0.0785 </r>
       <r>    7.9923   -0.0326 </r>
       <r>    9.3289    0.0000 </r>
       <r>   10.8290    0.0000 </r>
       <r>   13.0550    0.0000 </r>
      </set>
      <set comment="kpoint 18">
       <r>   -0.9648    1.0000 </r>
       <r>    1.3625    1.0000 </r>
       <r>    1.5767    1.0000 </r>
       <r>    1.6756    1.0000 </r>
       <r>    1.8769    1.0000 </r>
       <r>    2.0467    1.0000 </r>
       <r>    2.2125    1.0000 </r>
       <r>    3.4586    1.0000 </r>
       <r>    4.5509    1.0000 </r>
       <r>    4.6247    1.0000 </r>
       <r>    4.8569    1.0000 </r>
       <r>    5.1735    1.0000 </r>
       <r>    5.2005    1.0000 </r>
       <r>    5.6487    1.0000 </r>
       <r>    6.5207    1.0000 </r>
       <r>    6.6583    1.0000 </r>
       <r>    6.8729    1.0000 </r>
       <r>    6.9298    1.0000 </r>
       <r>    7.3943    0.9961 </r>
       <r>    7.9209    0.1306 </r>
       <r>    7.9447    0.0547 </r>
       <r>    8.6703    0.0000 </r>
       <r>   11.5283    0.0000 </r>
       <r>   13.8120    0.0000 </r>
      </set>
      <set comment="kpoint 19">
       <r>   -0.5210    1.0000 </r>
       <r>    1.3666    1.0000 </r>
       <r>    1.8313    1.0000 </r>
       <r>    1.9692    1.0000 </r>
       <r>    2.0614    1.0000 </r>
       <r>    2.3514    1.0000 </r>
       <r>    2.4893    1.0000 </r>
       <r>    3.2362    1.0000 </r>
       <r>    4.2692    1.0000 </r>
       <r>    4.6073    1.0000 </r>
       <r>    4.6182    1.0000 </r>
       <r>    4.7550    1.0000 </r>
       <r>    4.8681    1.0000 </r>
       <r>    5.5549    1.0000 </r>
       <r>    6.3411    1.0000 </r>
       <r>    6.5333    1.0000 </r>
       <r>    6.5675    1.0000 </r>
       <r>    6.7097    1.0000 </r>
       <r>    7.0354    1.0000 </r>
       <r>    7.9107    0.1692 </r>
       <r>    7.9185    0.1393 </r>
       <r>    8.1534   -0.0072 </r>
       <r>   12.1500    0.0000 </r>
       <r>   13.9946    0.0000 </r>
      </set>
      <set comment="kpoint 20">
       <r>   -0.0309    1.0000 </r>
       <r>    1.2273    1.0000 </r>
       <r>    2.1145    1.0000 </r>
       <r>    2.2437    1.0000 </r>
       <r>    2.2719    1.0000 </r>
       <r>    2.7011    1.0000 </r>
       <r>    2.7431    1.0000 </r>
       <r>    2.9945    1.0000 </r>
       <r>    3.7477    1.0000 </r>
       <r>    4.0849    1.0000 </r>
       <r>    4.4610    1.0000 </r>
       <r>    4.5522    1.0000 </r>
       <r>    5.1534    1.0000 </r>
       <r>    5.6314    1.0000 </r>
       <r>    6.0732    1.0000 </r>
       <r>    6.1886    1.0000 </r>
       <r>    6.2154    1.0000 </r>
       <r>    6.6293    1.0000 </r>
       <r>    6.9291    1.0000 </r>
       <r>    7.7623    0.8749 </r>
       <r>    7.9042    0.1962 </r>
       <r>    7.9054    0.1908 </r>
       <r>   12.6679    0.0000 </r>
       <r>   13.7010    0.0000 </r>
      </set>
      <set comment="kpoint 21">
       <r>    0.4673    1.0000 </r>
       <r>    0.9125    1.0000 </r>
       <r>    2.3585    1.0000 </r>
       <r>    2.4119    1.0000 </r>
       <r>    2.5026    1.0000 </r>
       <r>    2.7464    1.0000 </r>
       <r>    2.9626    1.0000 </r>
       <r>    3.0579    1.0000 </r>
       <r>    3.3554    1.0000 </r>
       <r>    3.5965    1.0000 </r>
       <r>    4.3679    1.0000 </r>
       <r>    4.4326    1.0000 </r>
       <r>    5.4722    1.0000 </r>
       <r>    5.8193    1.0000 </r>
       <r>    5.8768    1.0000 </r>
       <r>    5.9381    1.0000 </r>
       <r>    5.9925    1.0000 </r>
       <r>    6.2265    1.0000 </r>
       <r>    7.1746    0.9999 </r>
       <r>    7.4478    0.9951 </r>
       <r>    7.9005    0.2119 </r>
       <r>    7.9006    0.2115 </r>
       <r>   13.0774    0.0000 </r>
       <r>   13.4058    0.0000 </r>
      </set>
      <set comment="kpoint 22">
       <r>   -1.0614    1.0000 </r>
       <r>    1.4837    1.0000 </r>
       <r>    1.5081    1.0000 </r>
       <r>    1.5081    1.0000 </r>
       <r>    1.9068    1.0000 </r>
       <r>    1.9068    1.0000 </r>
       <r>    2.1745    1.0000 </r>
       <r>    3.5701    1.0000 </r>
       <r>    4.4888    1.0000 </r>
       <r>    4.5188    1.0000 </r>
       <r>    5.0720    1.0000 </r>
       <r>    5.0720    1.0000 </r>
       <r>    5.3801    1.0000 </r>
       <r>    5.7393    1.0000 </r>
       <r>    6.4653    1.0000 </r>
       <r>    6.7513    1.0000 </r>
       <r>    7.0521    1.0000 </r>
       <r>    7.0521    1.0000 </r>
       <r>    7.6401    1.0507 </r>
       <r>    7.6401    1.0507 </r>
       <r>    7.8361    0.5332 </r>
       <r>   10.0263    0.0000 </r>
       <r>   10.0263    0.0000 </r>
       <r>   13.7047    0.0000 </r>
      </set>
      <set comment="kpoint 23">
       <r>   -0.7038    1.0000 </r>
       <r>    1.5909    1.0000 </r>
       <r>    1.6516    1.0000 </r>
       <r>    1.7847    1.0000 </r>
       <r>    2.0499    1.0000 </r>
       <r>    2.1476    1.0000 </r>
       <r>    2.4284    1.0000 </r>
       <r>    3.4367    1.0000 </r>
       <r>    4.4822    1.0000 </r>
       <r>    4.5242    1.0000 </r>
       <r>    4.6450    1.0000 </r>
       <r>    4.6750    1.0000 </r>
       <r>    4.9580    1.0000 </r>
       <r>    5.6263    1.0000 </r>
       <r>    6.4983    1.0000 </r>
       <r>    6.6478    1.0000 </r>
       <r>    6.7998    1.0000 </r>
       <r>    6.8087    1.0000 </r>
       <r>    7.3093    0.9988 </r>
       <r>    7.6045    1.0388 </r>
       <r>    7.7220    0.9881 </r>
       <r>    9.3125    0.0000 </r>
       <r>   10.6823    0.0000 </r>
       <r>   13.7388    0.0000 </r>
      </set>
      <set comment="kpoint 24">
       <r>   -0.2793    1.0000 </r>
       <r>    1.5945    1.0000 </r>
       <r>    1.8738    1.0000 </r>
       <r>    2.0932    1.0000 </r>
       <r>    2.2204    1.0000 </r>
       <r>    2.4382    1.0000 </r>
       <r>    2.6745    1.0000 </r>
       <r>    3.2588    1.0000 </r>
       <r>    3.9429    1.0000 </r>
       <r>    4.2937    1.0000 </r>
       <r>    4.4982    1.0000 </r>
       <r>    4.5094    1.0000 </r>
       <r>    4.8936    1.0000 </r>
       <r>    5.5629    1.0000 </r>
       <r>    6.2305    1.0000 </r>
       <r>    6.4839    1.0000 </r>
       <r>    6.5038    1.0000 </r>
       <r>    6.8895    1.0000 </r>
       <r>    6.9478    1.0000 </r>
       <r>    7.5839    1.0290 </r>
       <r>    7.6476    1.0515 </r>
       <r>    8.7199    0.0000 </r>
       <r>   11.2736    0.0000 </r>
       <r>   13.3057    0.0000 </r>
      </set>
      <set comment="kpoint 25">
       <r>    0.1914    1.0000 </r>
       <r>    1.4443    1.0000 </r>
       <r>    2.1453    1.0000 </r>
       <r>    2.3964    1.0000 </r>
       <r>    2.4122    1.0000 </r>
       <r>    2.7575    1.0000 </r>
       <r>    2.8589    1.0000 </r>
       <r>    3.0540    1.0000 </r>
       <r>    3.4758    1.0000 </r>
       <r>    4.0364    1.0000 </r>
       <r>    4.1053    1.0000 </r>
       <r>    4.4027    1.0000 </r>
       <r>    5.1588    1.0000 </r>
       <r>    5.6373    1.0000 </r>
       <r>    6.0086    1.0000 </r>
       <r>    6.1296    1.0000 </r>
       <r>    6.2126    1.0000 </r>
       <r>    6.5622    1.0000 </r>
       <r>    7.1718    1.0000 </r>
       <r>    7.5734    1.0240 </r>
       <r>    7.6035    1.0383 </r>
       <r>    8.2392    0.0049 </r>
       <r>   11.7837    0.0000 </r>
       <r>   12.9288    0.0000 </r>
      </set>
      <set comment="kpoint 26">
       <r>    0.6752    1.0000 </r>
       <r>    1.1182    1.0000 </r>
       <r>    2.4419    1.0000 </r>
       <r>    2.5920    1.0000 </r>
       <r>    2.6201    1.0000 </r>
       <r>    2.8371    1.0000 </r>
       <r>    2.9278    1.0000 </r>
       <r>    2.9562    1.0000 </r>
       <r>    3.2727    1.0000 </r>
       <r>    3.6030    1.0000 </r>
       <r>    4.1078    1.0000 </r>
       <r>    4.2390    1.0000 </r>
       <r>    5.4569    1.0000 </r>
       <r>    5.7819    1.0000 </r>
       <r>    5.8596    1.0000 </r>
       <r>    5.9134    1.0000 </r>
       <r>    5.9918    1.0000 </r>
       <r>    6.1846    1.0000 </r>
       <r>    7.4872    0.9977 </r>
       <r>    7.5718    1.0232 </r>
       <r>    7.5804    1.0273 </r>
       <r>    7.8380    0.5229 </r>
       <r>   12.2118    0.0000 </r>
       <r>   12.5798    0.0000 </r>
      </set>
      <set comment="kpoint 27">
       <r>   -0.3681    1.0000 </r>
       <r>    1.7754    1.0000 </r>
       <r>    1.8745    1.0000 </r>
       <r>    1.8745    1.0000 </r>
       <r>    2.2780    1.0000 </r>
       <r>    2.2780    1.0000 </r>
       <r>    2.6630    1.0000 </r>
       <r>    3.3716    1.0000 </r>
       <r>    4.1223    1.0000 </r>
       <r>    4.1223    1.0000 </r>
       <r>    4.4972    1.0000 </r>
       <r>    4.6691    1.0000 </r>
       <r>    4.7849    1.0000 </r>
       <r>    5.5454    1.0000 </r>
       <r>    6.2938    1.0000 </r>
       <r>    6.6159    1.0000 </r>
       <r>    6.6159    1.0000 </r>
       <r>    6.8753    1.0000 </r>
       <r>    7.2480    0.9997 </r>
       <r>    7.2480    0.9997 </r>
       <r>    7.5327    1.0076 </r>
       <r>    9.9287    0.0000 </r>
       <r>    9.9287    0.0000 </r>
       <r>   13.1571    0.0000 </r>
      </set>
      <set comment="kpoint 28">
       <r>    0.0297    1.0000 </r>
       <r>    1.8744    1.0000 </r>
       <r>    1.9506    1.0000 </r>
       <r>    2.1927    1.0000 </r>
       <r>    2.4300    1.0000 </r>
       <r>    2.5545    1.0000 </r>
       <r>    2.8775    1.0000 </r>
       <r>    3.2601    1.0000 </r>
       <r>    3.6446    1.0000 </r>
       <r>    3.8621    1.0000 </r>
       <r>    4.3264    1.0000 </r>
       <r>    4.4343    1.0000 </r>
       <r>    4.9579    1.0000 </r>
       <r>    5.4916    1.0000 </r>
       <r>    6.0723    1.0000 </r>
       <r>    6.3412    1.0000 </r>
       <r>    6.3696    1.0000 </r>
       <r>    6.8692    1.0000 </r>
       <r>    7.1718    1.0000 </r>
       <r>    7.2147    0.9998 </r>
       <r>    7.3910    0.9962 </r>
       <r>    9.2896    0.0000 </r>
       <r>   10.4965    0.0000 </r>
       <r>   12.6537    0.0000 </r>
      </set>
      <set comment="kpoint 29">
       <r>    0.4718    1.0000 </r>
       <r>    1.7046    1.0000 </r>
       <r>    2.1778    1.0000 </r>
       <r>    2.5177    1.0000 </r>
       <r>    2.5947    1.0000 </r>
       <r>    2.8465    1.0000 </r>
       <r>    3.0119    1.0000 </r>
       <r>    3.1126    1.0000 </r>
       <r>    3.2380    1.0000 </r>
       <r>    3.7875    1.0000 </r>
       <r>    3.9592    1.0000 </r>
       <r>    4.2942    1.0000 </r>
       <r>    5.1781    1.0000 </r>
       <r>    5.5604    1.0000 </r>
       <r>    5.8900    1.0000 </r>
       <r>    6.0241    1.0000 </r>
       <r>    6.1140    1.0000 </r>
       <r>    6.4800    1.0000 </r>
       <r>    7.2027    0.9999 </r>
       <r>    7.2956    0.9991 </r>
       <r>    7.5125    1.0021 </r>
       <r>    8.7548    0.0000 </r>
       <r>   11.0017    0.0000 </r>
       <r>   12.2272    0.0000 </r>
      </set>
      <set comment="kpoint 30">
       <r>    0.9311    1.0000 </r>
       <r>    1.3648    1.0000 </r>
       <r>    2.4552    1.0000 </r>
       <r>    2.7614    1.0000 </r>
       <r>    2.7679    1.0000 </r>
       <r>    2.8203    1.0000 </r>
       <r>    2.9440    1.0000 </r>
       <r>    2.9964    1.0000 </r>
       <r>    3.2657    1.0000 </r>
       <r>    3.5973    1.0000 </r>
       <r>    3.8932    1.0000 </r>
       <r>    4.0916    1.0000 </r>
       <r>    5.4280    1.0000 </r>
       <r>    5.7109    1.0000 </r>
       <r>    5.7797    1.0000 </r>
       <r>    5.8225    1.0000 </r>
       <r>    5.9090    1.0000 </r>
       <r>    6.1041    1.0000 </r>
       <r>    7.2095    0.9999 </r>
       <r>    7.2382    0.9997 </r>
       <r>    7.8867    0.2741 </r>
       <r>    8.2959    0.0037 </r>
       <r>   11.4432    0.0000 </r>
       <r>   11.8393    0.0000 </r>
      </set>
      <set comment="kpoint 31">
       <r>    0.3937    1.0000 </r>
       <r>    2.0653    1.0000 </r>
       <r>    2.1779    1.0000 </r>
       <r>    2.1779    1.0000 </r>
       <r>    2.6866    1.0000 </r>
       <r>    2.6866    1.0000 </r>
       <r>    3.0620    1.0000 </r>
       <r>    3.2265    1.0000 </r>
       <r>    3.4798    1.0000 </r>
       <r>    3.4798    1.0000 </r>
       <r>    4.1052    1.0000 </r>
       <r>    4.3508    1.0000 </r>
       <r>    5.0639    1.0000 </r>
       <r>    5.4338    1.0000 </r>
       <r>    5.8867    1.0000 </r>
       <r>    6.1405    1.0000 </r>
       <r>    6.1405    1.0000 </r>
       <r>    6.8267    1.0000 </r>
       <r>    6.8267    1.0000 </r>
       <r>    7.1765    0.9999 </r>
       <r>    7.5210    1.0042 </r>
       <r>    9.8324    0.0000 </r>
       <r>    9.8324    0.0000 </r>
       <r>   12.0988    0.0000 </r>
      </set>
      <set comment="kpoint 32">
       <r>    0.7963    1.0000 </r>
       <r>    1.9728    1.0000 </r>
       <r>    2.2175    1.0000 </r>
       <r>    2.4490    1.0000 </r>
       <r>    2.8132    1.0000 </r>
       <r>    2.9787    1.0000 </r>
       <r>    3.1552    1.0000 </r>
       <r>    3.1726    1.0000 </r>
       <r>    3.1799    1.0000 </r>
       <r>    3.5353    1.0000 </r>
       <r>    3.8486    1.0000 </r>
       <r>    4.2079    1.0000 </r>
       <r>    5.1894    1.0000 </r>
       <r>    5.5102    1.0000 </r>
       <r>    5.7259    1.0000 </r>
       <r>    5.8600    1.0000 </r>
       <r>    5.9208    1.0000 </r>
       <r>    6.4368    1.0000 </r>
       <r>    6.8193    1.0000 </r>
       <r>    7.0153    1.0000 </r>
       <r>    7.9103    0.1710 </r>
       <r>    9.2682    0.0000 </r>
       <r>   10.3320    0.0000 </r>
       <r>   11.6296    0.0000 </r>
      </set>
      <set comment="kpoint 33">
       <r>    1.2164    1.0000 </r>
       <r>    1.6247    1.0000 </r>
       <r>    2.3968    1.0000 </r>
       <r>    2.5394    1.0000 </r>
       <r>    2.9365    1.0000 </r>
       <r>    3.0544    1.0000 </r>
       <r>    3.0704    1.0000 </r>
       <r>    3.1561    1.0000 </r>
       <r>    3.2863    1.0000 </r>
       <r>    3.5749    1.0000 </r>
       <r>    3.7416    1.0000 </r>
       <r>    3.9904    1.0000 </r>
       <r>    5.3516    1.0000 </r>
       <r>    5.5820    1.0000 </r>
       <r>    5.6640    1.0000 </r>
       <r>    5.7402    1.0000 </r>
       <r>    5.7427    1.0000 </r>
       <r>    6.0659    1.0000 </r>
       <r>    6.8446    1.0000 </r>
       <r>    6.9071    1.0000 </r>
       <r>    8.3279    0.0026 </r>
       <r>    8.7756    0.0000 </r>
       <r>   10.7854    0.0000 </r>
       <r>   11.2068    0.0000 </r>
      </set>
      <set comment="kpoint 34">
       <r>    1.1482    1.0000 </r>
       <r>    2.1926    1.0000 </r>
       <r>    2.1926    1.0000 </r>
       <r>    2.2656    1.0000 </r>
       <r>    3.0523    1.0000 </r>
       <r>    3.0523    1.0000 </r>
       <r>    3.1697    1.0000 </r>
       <r>    3.2917    1.0000 </r>
       <r>    3.3825    1.0000 </r>
       <r>    3.3825    1.0000 </r>
       <r>    3.7071    1.0000 </r>
       <r>    4.0963    1.0000 </r>
       <r>    5.1814    1.0000 </r>
       <r>    5.5627    1.0000 </r>
       <r>    5.5989    1.0000 </r>
       <r>    5.6716    1.0000 </r>
       <r>    5.6716    1.0000 </r>
       <r>    6.4441    1.0000 </r>
       <r>    6.4441    1.0000 </r>
       <r>    6.7840    1.0000 </r>
       <r>    8.3382    0.0022 </r>
       <r>    9.7594    0.0000 </r>
       <r>    9.7594    0.0000 </r>
       <r>   11.1223    0.0000 </r>
      </set>
      <set comment="kpoint 35">
       <r>    1.5097    1.0000 </r>
       <r>    1.8643    1.0000 </r>
       <r>    2.3040    1.0000 </r>
       <r>    2.3086    1.0000 </r>
       <r>    3.1091    1.0000 </r>
       <r>    3.1524    1.0000 </r>
       <r>    3.2525    1.0000 </r>
       <r>    3.3196    1.0000 </r>
       <r>    3.3829    1.0000 </r>
       <r>    3.5427    1.0000 </r>
       <r>    3.6566    1.0000 </r>
       <r>    3.9105    1.0000 </r>
       <r>    5.2489    1.0000 </r>
       <r>    5.4267    1.0000 </r>
       <r>    5.4775    1.0000 </r>
       <r>    5.5220    1.0000 </r>
       <r>    5.8086    1.0000 </r>
       <r>    6.0992    1.0000 </r>
       <r>    6.5011    1.0000 </r>
       <r>    6.6124    1.0000 </r>
       <r>    8.7851    0.0000 </r>
       <r>    9.2532    0.0000 </r>
       <r>   10.2222    0.0000 </r>
       <r>   10.6670    0.0000 </r>
      </set>
      <set comment="kpoint 36">
       <r>    1.7929    1.0000 </r>
       <r>    2.0570    1.0000 </r>
       <r>    2.0570    1.0000 </r>
       <r>    2.1999    1.0000 </r>
       <r>    3.2238    1.0000 </r>
       <r>    3.2608    1.0000 </r>
       <r>    3.2608    1.0000 </r>
       <r>    3.3589    1.0000 </r>
       <r>    3.5613    1.0000 </r>
       <r>    3.6128    1.0000 </r>
       <r>    3.6128    1.0000 </r>
       <r>    3.7982    1.0000 </r>
       <r>    5.2202    1.0000 </r>
       <r>    5.3228    1.0000 </r>
       <r>    5.3228    1.0000 </r>
       <r>    5.3396    1.0000 </r>
       <r>    5.9661    1.0000 </r>
       <r>    6.2016    1.0000 </r>
       <r>    6.2016    1.0000 </r>
       <r>    6.3734    1.0000 </r>
       <r>    9.2479    0.0000 </r>
       <r>    9.7204    0.0000 </r>
       <r>    9.7204    0.0000 </r>
       <r>   10.1838    0.0000 </r>
      </set>
      <set comment="kpoint 37">
       <r>   -1.9296    1.0000 </r>
       <r>    1.0291    1.0000 </r>
       <r>    1.0291    1.0000 </r>
       <r>    1.0291    1.0000 </r>
       <r>    1.4665    1.0000 </r>
       <r>    1.4665    1.0000 </r>
       <r>    1.4665    1.0000 </r>
       <r>    3.9258    1.0000 </r>
       <r>    4.2049    1.0000 </r>
       <r>    4.2049    1.0000 </r>
       <r>    6.1528    1.0000 </r>
       <r>    6.1528    1.0000 </r>
       <r>    6.9572    1.0000 </r>
       <r>    6.9572    1.0000 </r>
       <r>    6.9572    1.0000 </r>
       <r>    7.4846    0.9974 </r>
       <r>    7.4846    0.9974 </r>
       <r>    7.4846    0.9974 </r>
       <r>    8.1860    0.0006 </r>
       <r>    8.1860    0.0006 </r>
       <r>    8.1860    0.0006 </r>
       <r>   10.4988    0.0000 </r>
       <r>   10.4988    0.0000 </r>
       <r>   10.4988    0.0000 </r>
      </set>
      <set comment="kpoint 38">
       <r>   -1.7294    1.0000 </r>
       <r>    1.1037    1.0000 </r>
       <r>    1.1585    1.0000 </r>
       <r>    1.1585    1.0000 </r>
       <r>    1.5497    1.0000 </r>
       <r>    1.6100    1.0000 </r>
       <r>    1.6100    1.0000 </r>
       <r>    3.8321    1.0000 </r>
       <r>    4.2793    1.0000 </r>
       <r>    4.2926    1.0000 </r>
       <r>    6.0219    1.0000 </r>
       <r>    6.2272    1.0000 </r>
       <r>    6.3897    1.0000 </r>
       <r>    6.3897    1.0000 </r>
       <r>    6.5732    1.0000 </r>
       <r>    7.2848    0.9993 </r>
       <r>    7.2983    0.9990 </r>
       <r>    7.2983    0.9990 </r>
       <r>    8.0995   -0.0296 </r>
       <r>    8.1527   -0.0074 </r>
       <r>    8.1527   -0.0074 </r>
       <r>    9.7536    0.0000 </r>
       <r>   11.1710    0.0000 </r>
       <r>   11.1710    0.0000 </r>
      </set>
      <set comment="kpoint 39">
       <r>   -1.4355    1.0000 </r>
       <r>    1.1939    1.0000 </r>
       <r>    1.3462    1.0000 </r>
       <r>    1.3462    1.0000 </r>
       <r>    1.6725    1.0000 </r>
       <r>    1.8188    1.0000 </r>
       <r>    1.8188    1.0000 </r>
       <r>    3.6736    1.0000 </r>
       <r>    4.4101    1.0000 </r>
       <r>    4.4236    1.0000 </r>
       <r>    5.7571    1.0000 </r>
       <r>    5.7571    1.0000 </r>
       <r>    5.8475    1.0000 </r>
       <r>    6.0640    1.0000 </r>
       <r>    6.3356    1.0000 </r>
       <r>    7.0136    1.0000 </r>
       <r>    7.0596    1.0000 </r>
       <r>    7.0596    1.0000 </r>
       <r>    7.9751   -0.0104 </r>
       <r>    8.1121   -0.0236 </r>
       <r>    8.1121   -0.0236 </r>
       <r>    8.9652    0.0000 </r>
       <r>   11.9079    0.0000 </r>
       <r>   11.9079    0.0000 </r>
      </set>
      <set comment="kpoint 40">
       <r>   -1.0570    1.0000 </r>
       <r>    1.2672    1.0000 </r>
       <r>    1.5843    1.0000 </r>
       <r>    1.5843    1.0000 </r>
       <r>    1.8314    1.0000 </r>
       <r>    2.0813    1.0000 </r>
       <r>    2.0813    1.0000 </r>
       <r>    3.4689    1.0000 </r>
       <r>    4.5662    1.0000 </r>
       <r>    4.5970    1.0000 </r>
       <r>    5.1301    1.0000 </r>
       <r>    5.1301    1.0000 </r>
       <r>    5.5063    1.0000 </r>
       <r>    5.6693    1.0000 </r>
       <r>    6.4748    1.0000 </r>
       <r>    6.6955    1.0000 </r>
       <r>    6.7571    1.0000 </r>
       <r>    6.7571    1.0000 </r>
       <r>    7.8187    0.6238 </r>
       <r>    8.0802   -0.0388 </r>
       <r>    8.0802   -0.0388 </r>
       <r>    8.2214    0.0044 </r>
       <r>   12.6331    0.0000 </r>
       <r>   12.6331    0.0000 </r>
      </set>
      <set comment="kpoint 41">
       <r>   -0.6085    1.0000 </r>
       <r>    1.2699    1.0000 </r>
       <r>    1.8589    1.0000 </r>
       <r>    1.8589    1.0000 </r>
       <r>    2.0218    1.0000 </r>
       <r>    2.3782    1.0000 </r>
       <r>    2.3782    1.0000 </r>
       <r>    3.2340    1.0000 </r>
       <r>    4.5374    1.0000 </r>
       <r>    4.5374    1.0000 </r>
       <r>    4.6759    1.0000 </r>
       <r>    4.8114    1.0000 </r>
       <r>    4.9993    1.0000 </r>
       <r>    5.5780    1.0000 </r>
       <r>    6.3532    1.0000 </r>
       <r>    6.4245    1.0000 </r>
       <r>    6.4245    1.0000 </r>
       <r>    6.6400    1.0000 </r>
       <r>    7.5502    1.0139 </r>
       <r>    7.6375    1.0503 </r>
       <r>    8.0593   -0.0471 </r>
       <r>    8.0593   -0.0471 </r>
       <r>   13.2780    0.0000 </r>
       <r>   13.2780    0.0000 </r>
      </set>
      <set comment="kpoint 42">
       <r>   -0.1144    1.0000 </r>
       <r>    1.1347    1.0000 </r>
       <r>    2.1367    1.0000 </r>
       <r>    2.1367    1.0000 </r>
       <r>    2.2383    1.0000 </r>
       <r>    2.6841    1.0000 </r>
       <r>    2.6841    1.0000 </r>
       <r>    2.9823    1.0000 </r>
       <r>    4.0012    1.0000 </r>
       <r>    4.0012    1.0000 </r>
       <r>    4.6472    1.0000 </r>
       <r>    4.6479    1.0000 </r>
       <r>    5.0643    1.0000 </r>
       <r>    5.6971    1.0000 </r>
       <r>    6.0058    1.0000 </r>
       <r>    6.1243    1.0000 </r>
       <r>    6.1243    1.0000 </r>
       <r>    6.8258    1.0000 </r>
       <r>    6.9562    1.0000 </r>
       <r>    7.4396    0.9951 </r>
       <r>    8.0474   -0.0502 </r>
       <r>    8.0474   -0.0502 </r>
       <r>   13.7533    0.0000 </r>
       <r>   13.7533    0.0000 </r>
      </set>
      <set comment="kpoint 43">
       <r>    0.3851    1.0000 </r>
       <r>    0.8268    1.0000 </r>
       <r>    2.3341    1.0000 </r>
       <r>    2.3341    1.0000 </r>
       <r>    2.4751    1.0000 </r>
       <r>    2.7259    1.0000 </r>
       <r>    2.9682    1.0000 </r>
       <r>    2.9682    1.0000 </r>
       <r>    3.5732    1.0000 </r>
       <r>    3.5732    1.0000 </r>
       <r>    4.5085    1.0000 </r>
       <r>    4.5437    1.0000 </r>
       <r>    5.3518    1.0000 </r>
       <r>    5.6683    1.0000 </r>
       <r>    5.9390    1.0000 </r>
       <r>    5.9390    1.0000 </r>
       <r>    6.0099    1.0000 </r>
       <r>    6.4402    1.0000 </r>
       <r>    7.0258    1.0000 </r>
       <r>    7.2330    0.9998 </r>
       <r>    8.0420   -0.0511 </r>
       <r>    8.0420   -0.0511 </r>
       <r>   13.9850    0.0000 </r>
       <r>   13.9850    0.0000 </r>
      </set>
      <set comment="kpoint 44">
       <r>   -1.5361    1.0000 </r>
       <r>    1.2320    1.0000 </r>
       <r>    1.2320    1.0000 </r>
       <r>    1.2543    1.0000 </r>
       <r>    1.6927    1.0000 </r>
       <r>    1.6927    1.0000 </r>
       <r>    1.7710    1.0000 </r>
       <r>    3.7767    1.0000 </r>
       <r>    4.3287    1.0000 </r>
       <r>    4.3516    1.0000 </r>
       <r>    6.0030    1.0000 </r>
       <r>    6.0261    1.0000 </r>
       <r>    6.0261    1.0000 </r>
       <r>    6.0369    1.0000 </r>
       <r>    6.2211    1.0000 </r>
       <r>    7.0639    1.0000 </r>
       <r>    7.1081    1.0000 </r>
       <r>    7.1081    1.0000 </r>
       <r>    8.0820   -0.0379 </r>
       <r>    8.0820   -0.0379 </r>
       <r>    8.0962   -0.0312 </r>
       <r>   10.3817    0.0000 </r>
       <r>   10.3817    0.0000 </r>
       <r>   11.7297    0.0000 </r>
      </set>
      <set comment="kpoint 45">
       <r>   -1.2524    1.0000 </r>
       <r>    1.3202    1.0000 </r>
       <r>    1.4032    1.0000 </r>
       <r>    1.4180    1.0000 </r>
       <r>    1.8147    1.0000 </r>
       <r>    1.9006    1.0000 </r>
       <r>    1.9931    1.0000 </r>
       <r>    3.6575    1.0000 </r>
       <r>    4.4310    1.0000 </r>
       <r>    4.4450    1.0000 </r>
       <r>    5.4204    1.0000 </r>
       <r>    5.5533    1.0000 </r>
       <r>    5.5659    1.0000 </r>
       <r>    5.8792    1.0000 </r>
       <r>    6.3278    1.0000 </r>
       <r>    6.8323    1.0000 </r>
       <r>    6.8388    1.0000 </r>
       <r>    6.9240    1.0000 </r>
       <r>    7.9682    0.0013 </r>
       <r>    8.0159   -0.0485 </r>
       <r>    8.0207   -0.0500 </r>
       <r>    9.5526    0.0000 </r>
       <r>   11.0633    0.0000 </r>
       <r>   12.3836    0.0000 </r>
      </set>
      <set comment="kpoint 46">
       <r>   -0.8873    1.0000 </r>
       <r>    1.3906    1.0000 </r>
       <r>    1.6057    1.0000 </r>
       <r>    1.6547    1.0000 </r>
       <r>    1.9718    1.0000 </r>
       <r>    2.1604    1.0000 </r>
       <r>    2.2549    1.0000 </r>
       <r>    3.4845    1.0000 </r>
       <r>    4.5367    1.0000 </r>
       <r>    4.5919    1.0000 </r>
       <r>    4.8285    1.0000 </r>
       <r>    5.0222    1.0000 </r>
       <r>    5.0786    1.0000 </r>
       <r>    5.7459    1.0000 </r>
       <r>    6.4925    1.0000 </r>
       <r>    6.5234    1.0000 </r>
       <r>    6.5759    1.0000 </r>
       <r>    6.6858    1.0000 </r>
       <r>    7.7947    0.7411 </r>
       <r>    7.9470    0.0486 </r>
       <r>    7.9485    0.0446 </r>
       <r>    8.7818    0.0000 </r>
       <r>   11.7281    0.0000 </r>
       <r>   13.0448    0.0000 </r>
      </set>
      <set comment="kpoint 47">
       <r>   -0.4547    1.0000 </r>
       <r>    1.3897    1.0000 </r>
       <r>    1.8572    1.0000 </r>
       <r>    1.9315    1.0000 </r>
       <r>    2.1567    1.0000 </r>
       <r>    2.4467    1.0000 </r>
       <r>    2.5227    1.0000 </r>
       <r>    3.2762    1.0000 </r>
       <r>    4.2828    1.0000 </r>
       <r>    4.4998    1.0000 </r>
       <r>    4.5805    1.0000 </r>
       <r>    4.6516    1.0000 </r>
       <r>    4.7817    1.0000 </r>
       <r>    5.7098    1.0000 </r>
       <r>    6.1905    1.0000 </r>
       <r>    6.2975    1.0000 </r>
       <r>    6.4045    1.0000 </r>
       <r>    6.6920    1.0000 </r>
       <r>    7.5222    1.0045 </r>
       <r>    7.8937    0.2419 </r>
       <r>    7.8943    0.2392 </r>
       <r>    8.1454   -0.0098 </r>
       <r>   12.3309    0.0000 </r>
       <r>   13.5953    0.0000 </r>
      </set>
      <set comment="kpoint 48">
       <r>    0.0227    1.0000 </r>
       <r>    1.2505    1.0000 </r>
       <r>    2.1432    1.0000 </r>
       <r>    2.2242    1.0000 </r>
       <r>    2.3619    1.0000 </r>
       <r>    2.7088    1.0000 </r>
       <r>    2.7416    1.0000 </r>
       <r>    3.0483    1.0000 </r>
       <r>    3.8235    1.0000 </r>
       <r>    4.0291    1.0000 </r>
       <r>    4.3786    1.0000 </r>
       <r>    4.5105    1.0000 </r>
       <r>    5.0043    1.0000 </r>
       <r>    5.8606    1.0000 </r>
       <r>    5.8612    1.0000 </r>
       <r>    6.0467    1.0000 </r>
       <r>    6.1293    1.0000 </r>
       <r>    6.9163    1.0000 </r>
       <r>    7.0984    1.0000 </r>
       <r>    7.7158    0.9998 </r>
       <r>    7.8596    0.4092 </r>
       <r>    7.8609    0.4024 </r>
       <r>   12.8388    0.0000 </r>
       <r>   13.7454    0.0000 </r>
      </set>
      <set comment="kpoint 49">
       <r>    0.5078    1.0000 </r>
       <r>    0.9420    1.0000 </r>
       <r>    2.4085    1.0000 </r>
       <r>    2.4531    1.0000 </r>
       <r>    2.5825    1.0000 </r>
       <r>    2.8137    1.0000 </r>
       <r>    2.8436    1.0000 </r>
       <r>    2.8463    1.0000 </r>
       <r>    3.5687    1.0000 </r>
       <r>    3.6744    1.0000 </r>
       <r>    4.3040    1.0000 </r>
       <r>    4.3812    1.0000 </r>
       <r>    5.2602    1.0000 </r>
       <r>    5.5474    1.0000 </r>
       <r>    5.9049    1.0000 </r>
       <r>    5.9372    1.0000 </r>
       <r>    6.1826    1.0000 </r>
       <r>    6.6143    1.0000 </r>
       <r>    7.1585    1.0000 </r>
       <r>    7.4178    0.9953 </r>
       <r>    7.8441    0.4906 </r>
       <r>    7.8448    0.4873 </r>
       <r>   13.2393    0.0000 </r>
       <r>   13.5454    0.0000 </r>
      </set>
      <set comment="kpoint 50">
       <r>   -0.9842    1.0000 </r>
       <r>    1.5023    1.0000 </r>
       <r>    1.5023    1.0000 </r>
       <r>    1.5089    1.0000 </r>
       <r>    2.0222    1.0000 </r>
       <r>    2.0222    1.0000 </r>
       <r>    2.2195    1.0000 </r>
       <r>    3.5969    1.0000 </r>
       <r>    4.4793    1.0000 </r>
       <r>    4.4974    1.0000 </r>
       <r>    5.0124    1.0000 </r>
       <r>    5.0124    1.0000 </r>
       <r>    5.2380    1.0000 </r>
       <r>    5.8376    1.0000 </r>
       <r>    6.4187    1.0000 </r>
       <r>    6.5908    1.0000 </r>
       <r>    6.6916    1.0000 </r>
       <r>    6.6916    1.0000 </r>
       <r>    7.8817    0.2981 </r>
       <r>    7.8817    0.2981 </r>
       <r>    7.9114    0.1666 </r>
       <r>   10.1970    0.0000 </r>
       <r>   10.1970    0.0000 </r>
       <r>   12.9602    0.0000 </r>
      </set>
      <set comment="kpoint 51">
       <r>   -0.6394    1.0000 </r>
       <r>    1.5661    1.0000 </r>
       <r>    1.6676    1.0000 </r>
       <r>    1.7334    1.0000 </r>
       <r>    2.1785    1.0000 </r>
       <r>    2.2813    1.0000 </r>
       <r>    2.4703    1.0000 </r>
       <r>    3.4818    1.0000 </r>
       <r>    4.4749    1.0000 </r>
       <r>    4.5119    1.0000 </r>
       <r>    4.5992    1.0000 </r>
       <r>    4.6150    1.0000 </r>
       <r>    4.8453    1.0000 </r>
       <r>    5.7596    1.0000 </r>
       <r>    6.3534    1.0000 </r>
       <r>    6.3947    1.0000 </r>
       <r>    6.5133    1.0000 </r>
       <r>    6.6075    1.0000 </r>
       <r>    7.6871    1.0375 </r>
[...]
       <r>    8.4665    0.0002 </r>
       <r>    9.0089    0.0000 </r>
       <r>    9.0089    0.0000 </r>
       <r>    9.4569    0.0000 </r>
      </set>
      <set comment="kpoint 117">
       <r>    0.5633    1.0000 </r>
       <r>    0.8465    1.0000 </r>
       <r>    0.8465    1.0000 </r>
       <r>    0.8465    1.0000 </r>
       <r>    3.7964    1.0000 </r>
       <r>    3.7964    1.0000 </r>
       <r>    3.7964    1.0000 </r>
       <r>    4.1025    1.0000 </r>
       <r>    4.1025    1.0000 </r>
       <r>    4.2617    1.0000 </r>
       <r>    4.2617    1.0000 </r>
       <r>    4.2617    1.0000 </r>
       <r>    5.8806    1.0000 </r>
       <r>    5.8806    1.0000 </r>
       <r>    5.8806    1.0000 </r>
       <r>    6.0982    1.0000 </r>
       <r>    7.5713    1.0230 </r>
       <r>    7.5713    1.0230 </r>
       <r>    7.9043    0.1957 </r>
       <r>    7.9043    0.1957 </r>
       <r>    7.9043    0.1957 </r>
       <r>    9.3631    0.0000 </r>
       <r>    9.3631    0.0000 </r>
       <r>    9.3631    0.0000 </r>
      </set>
      <set comment="kpoint 118">
       <r>    0.6029    1.0000 </r>
       <r>    0.6978    1.0000 </r>
       <r>    0.7884    1.0000 </r>
       <r>    0.7884    1.0000 </r>
       <r>    3.8375    1.0000 </r>
       <r>    3.8375    1.0000 </r>
       <r>    3.9313    1.0000 </r>
       <r>    4.0353    1.0000 </r>
       <r>    4.1006    1.0000 </r>
       <r>    4.1542    1.0000 </r>
       <r>    4.1935    1.0000 </r>
       <r>    4.1935    1.0000 </r>
       <r>    6.1777    1.0000 </r>
       <r>    6.1777    1.0000 </r>
       <r>    6.1803    1.0000 </r>
       <r>    6.3311    1.0000 </r>
       <r>    7.7659    0.8618 </r>
       <r>    7.8387    0.5192 </r>
       <r>    7.8565    0.4254 </r>
       <r>    7.8565    0.4254 </r>
       <r>    7.8795    0.3085 </r>
       <r>    8.5205    0.0000 </r>
       <r>    9.3225    0.0000 </r>
       <r>    9.3225    0.0000 </r>
      </set>
      <set comment="kpoint 119">
       <r>    0.6049    1.0000 </r>
       <r>    0.6670    1.0000 </r>
       <r>    0.6670    1.0000 </r>
       <r>    0.6973    1.0000 </r>
       <r>    3.9139    1.0000 </r>
       <r>    3.9455    1.0000 </r>
       <r>    3.9455    1.0000 </r>
       <r>    4.0205    1.0000 </r>
       <r>    4.0597    1.0000 </r>
       <r>    4.0987    1.0000 </r>
       <r>    4.0987    1.0000 </r>
       <r>    4.1118    1.0000 </r>
       <r>    6.5228    1.0000 </r>
       <r>    6.5471    1.0000 </r>
       <r>    6.5471    1.0000 </r>
       <r>    6.6888    1.0000 </r>
       <r>    7.7177    0.9964 </r>
       <r>    7.8282    0.5748 </r>
       <r>    7.8282    0.5748 </r>
       <r>    7.8325    0.5521 </r>
       <r>    8.1188   -0.0206 </r>
       <r>    8.6366    0.0000 </r>
       <r>    8.6366    0.0000 </r>
       <r>    8.9275    0.0000 </r>
      </set>
      <set comment="kpoint 120">
       <r>    0.5722    1.0000 </r>
       <r>    0.6032    1.0000 </r>
       <r>    0.6032    1.0000 </r>
       <r>    0.6032    1.0000 </r>
       <r>    3.9848    1.0000 </r>
       <r>    3.9848    1.0000 </r>
       <r>    3.9848    1.0000 </r>
       <r>    4.0211    1.0000 </r>
       <r>    4.0211    1.0000 </r>
       <r>    4.0386    1.0000 </r>
       <r>    4.0386    1.0000 </r>
       <r>    4.0386    1.0000 </r>
       <r>    7.0326    1.0000 </r>
       <r>    7.0326    1.0000 </r>
       <r>    7.0326    1.0000 </r>
       <r>    7.2563    0.9996 </r>
       <r>    7.8470    0.4753 </r>
       <r>    7.8470    0.4753 </r>
       <r>    7.8862    0.2765 </r>
       <r>    7.8862    0.2765 </r>
       <r>    7.8862    0.2765 </r>
       <r>    8.2950    0.0038 </r>
       <r>    8.2950    0.0038 </r>
       <r>    8.2950    0.0038 </r>
      </set>
     </set>
    </set>
   </array>
  </eigenvalues>
  <separator name="orbital magnetization" >
   <v name="MAGDIPOLOUT">      0.00000000      0.00000000      0.00000000</v>
  </separator>
  <dos>
   <i name="efermi">      7.84234667 </i>
   <total>
    <array>
     <dimension dim="1">gridpoints</dimension>
     <dimension dim="2">spin</dimension>
     <field>energy</field>
     <field>total</field>
     <field>integrated</field>
     <set>
      <set comment="spin 1">
       <r>    -4.2385     0.0000     0.0000 </r>
       <r>    -4.1685     0.0000     0.0000 </r>
       <r>    -4.0984     0.0000     0.0000 </r>
       <r>    -4.0284     0.0000     0.0000 </r>
       <r>    -3.9584     0.0000     0.0000 </r>
       <r>    -3.8884     0.0000     0.0000 </r>
       <r>    -3.8183     0.0000     0.0000 </r>
       <r>    -3.7483     0.0000     0.0000 </r>
       <r>    -3.6783     0.0000     0.0000 </r>
       <r>    -3.6083     0.0000     0.0000 </r>
       <r>    -3.5382     0.0000     0.0000 </r>
       <r>    -3.4682     0.0000     0.0000 </r>
       <r>    -3.3982     0.0000     0.0000 </r>
       <r>    -3.3281     0.0000     0.0000 </r>
       <r>    -3.2581     0.0000     0.0000 </r>
       <r>    -3.1881     0.0000     0.0000 </r>
       <r>    -3.1181     0.0000     0.0000 </r>
       <r>    -3.0480     0.0000     0.0000 </r>
       <r>    -2.9780     0.0000     0.0000 </r>
       <r>    -2.9080     0.0000     0.0000 </r>
       <r>    -2.8380     0.0000     0.0000 </r>
       <r>    -2.7679     0.0001     0.0000 </r>
       <r>    -2.6979     0.0002     0.0000 </r>
       <r>    -2.6279     0.0004     0.0000 </r>
       <r>    -2.5579     0.0001     0.0001 </r>
       <r>    -2.4878    -0.0015    -0.0001 </r>
       <r>    -2.4178    -0.0035    -0.0003 </r>
       <r>    -2.3478    -0.0011    -0.0004 </r>
       <r>    -2.2778     0.0137     0.0006 </r>
       <r>    -2.2077     0.0428     0.0036 </r>
       <r>    -2.1377     0.0770     0.0090 </r>
       <r>    -2.0677     0.1046     0.0163 </r>
       <r>    -1.9976     0.1273     0.0252 </r>
       <r>    -1.9276     0.1533     0.0360 </r>
       <r>    -1.8576     0.1756     0.0482 </r>
       <r>    -1.7876     0.1794     0.0608 </r>
       <r>    -1.7175     0.1776     0.0732 </r>
       <r>    -1.6475     0.2024     0.0874 </r>
       <r>    -1.5775     0.2482     0.1048 </r>
       <r>    -1.5075     0.2676     0.1235 </r>
       <r>    -1.4374     0.2487     0.1410 </r>
       <r>    -1.3674     0.2379     0.1576 </r>
       <r>    -1.2974     0.2637     0.1761 </r>
       <r>    -1.2274     0.3008     0.1971 </r>
       <r>    -1.1573     0.3273     0.2201 </r>
       <r>    -1.0873     0.3504     0.2446 </r>
       <r>    -1.0173     0.3661     0.2702 </r>
       <r>    -0.9473     0.3517     0.2949 </r>
       <r>    -0.8772     0.3172     0.3171 </r>
       <r>    -0.8072     0.3217     0.3396 </r>
       <r>    -0.7372     0.3987     0.3675 </r>
       <r>    -0.6671     0.4917     0.4020 </r>
       <r>    -0.5971     0.5171     0.4382 </r>
       <r>    -0.5271     0.4657     0.4708 </r>
       <r>    -0.4571     0.4009     0.4989 </r>
       <r>    -0.3870     0.4011     0.5269 </r>
       <r>    -0.3170     0.4922     0.5614 </r>
       <r>    -0.2470     0.5985     0.6033 </r>
       <r>    -0.1770     0.6210     0.6468 </r>
       <r>    -0.1069     0.5811     0.6875 </r>
       <r>    -0.0369     0.5860     0.7285 </r>
       <r>     0.0331     0.6578     0.7746 </r>
       <r>     0.1031     0.7131     0.8245 </r>
       <r>     0.1732     0.7071     0.8740 </r>
       <r>     0.2432     0.6936     0.9226 </r>
       <r>     0.3132     0.7566     0.9756 </r>
       <r>     0.3832     0.9212     1.0401 </r>
       <r>     0.4533     1.1169     1.1183 </r>
       <r>     0.5233     1.2795     1.2079 </r>
       <r>     0.5933     1.4888     1.3122 </r>
       <r>     0.6634     1.8369     1.4408 </r>
       <r>     0.7334     2.2035     1.5951 </r>
       <r>     0.8034     2.4024     1.7633 </r>
       <r>     0.8734     2.4782     1.9369 </r>
       <r>     0.9435     2.6375     2.1216 </r>
       <r>     1.0135     2.9842     2.3305 </r>
       <r>     1.0835     3.4293     2.5707 </r>
       <r>     1.1535     3.7872     2.8359 </r>
       <r>     1.2236     4.0235     3.1176 </r>
       <r>     1.2936     4.3246     3.4205 </r>
       <r>     1.3636     4.7458     3.7528 </r>
       <r>     1.4336     5.1375     4.1126 </r>
       <r>     1.5037     5.4996     4.4977 </r>
       <r>     1.5737     5.8573     4.9079 </r>
       <r>     1.6437     5.9749     5.3262 </r>
       <r>     1.7137     5.7772     5.7308 </r>
       <r>     1.7838     5.6056     6.1233 </r>
       <r>     1.8538     5.6100     6.5162 </r>
       <r>     1.9238     5.4947     6.9010 </r>
       <r>     1.9939     5.1705     7.2630 </r>
       <r>     2.0639     4.9993     7.6131 </r>
       <r>     2.1339     5.1299     7.9723 </r>
       <r>     2.2039     5.2197     8.3379 </r>
       <r>     2.2740     5.0352     8.6905 </r>
       <r>     2.3440     4.7450     9.0227 </r>
       <r>     2.4140     4.4477     9.3342 </r>
       <r>     2.4840     3.9972     9.6141 </r>
       <r>     2.5541     3.4954     9.8589 </r>
       <r>     2.6241     3.3945    10.0966 </r>
       <r>     2.6941     3.8537    10.3664 </r>
       <r>     2.7641     4.4711    10.6795 </r>
       <r>     2.8342     4.8559    11.0196 </r>
       <r>     2.9042     5.0325    11.3720 </r>
       <r>     2.9742     5.1785    11.7346 </r>
       <r>     3.0442     5.3502    12.1092 </r>
       <r>     3.1143     5.4995    12.4944 </r>
       <r>     3.1843     5.5566    12.8835 </r>
       <r>     3.2543     5.5063    13.2691 </r>
       <r>     3.3243     5.4100    13.6479 </r>
       <r>     3.3944     5.3812    14.0247 </r>
       <r>     3.4644     5.5503    14.4134 </r>
       <r>     3.5344     5.9196    14.8279 </r>
       <r>     3.6045     6.2240    15.2638 </r>
       <r>     3.6745     6.1920    15.6974 </r>
       <r>     3.7445     5.9639    16.1150 </r>
       <r>     3.8145     5.8902    16.5275 </r>
       <r>     3.8846     6.0616    16.9519 </r>
       <r>     3.9546     6.4420    17.4030 </r>
       <r>     4.0246     7.0386    17.8959 </r>
       <r>     4.0946     7.6020    18.4283 </r>
       <r>     4.1647     7.7692    18.9723 </r>
       <r>     4.2347     7.7146    19.5125 </r>
       <r>     4.3047     8.0305    20.0749 </r>
       <r>     4.3747     8.8565    20.6951 </r>
       <r>     4.4448     9.6032    21.3675 </r>
       <r>     4.5148     9.6094    22.0405 </r>
       <r>     4.5848     8.7748    22.6549 </r>
       <r>     4.6548     7.4913    23.1795 </r>
       <r>     4.7249     6.2489    23.6171 </r>
       <r>     4.7949     5.4024    23.9954 </r>
       <r>     4.8649     5.0119    24.3464 </r>
       <r>     4.9350     4.8446    24.6856 </r>
       <r>     5.0050     4.7062    25.0152 </r>
       <r>     5.0750     4.6512    25.3409 </r>
       <r>     5.1450     4.7373    25.6726 </r>
       <r>     5.2151     4.7672    26.0064 </r>
       <r>     5.2851     4.5431    26.3246 </r>
       <r>     5.3551     4.2774    26.6241 </r>
       <r>     5.4251     4.3533    26.9290 </r>
       <r>     5.4952     4.7253    27.2599 </r>
       <r>     5.5652     5.0304    27.6121 </r>
       <r>     5.6352     5.2186    27.9776 </r>
       <r>     5.7052     5.5395    28.3655 </r>
       <r>     5.7753     6.0128    28.7865 </r>
       <r>     5.8453     6.3744    29.2329 </r>
       <r>     5.9153     6.4089    29.6817 </r>
       <r>     5.9853     6.1424    30.1118 </r>
       <r>     6.0554     5.8398    30.5208 </r>
       <r>     6.1254     5.6837    30.9188 </r>
       <r>     6.1954     5.4677    31.3016 </r>
       <r>     6.2655     4.9654    31.6494 </r>
       <r>     6.3355     4.4544    31.9613 </r>
       <r>     6.4055     4.4223    32.2709 </r>
       <r>     6.4755     4.8614    32.6114 </r>
       <r>     6.5456     5.1935    32.9751 </r>
       <r>     6.6156     4.9244    33.3199 </r>
       <r>     6.6856     4.2721    33.6191 </r>
       <r>     6.7556     3.9474    33.8955 </r>
       <r>     6.8257     4.2164    34.1907 </r>
       <r>     6.8957     4.5900    34.5122 </r>
       <r>     6.9657     4.6300    34.8364 </r>
       <r>     7.0357     4.5012    35.1516 </r>
       <r>     7.1058     4.5070    35.4672 </r>
       <r>     7.1758     4.6028    35.7895 </r>
       <r>     7.2458     4.6190    36.1130 </r>
       <r>     7.3158     4.6394    36.4378 </r>
       <r>     7.3859     4.8817    36.7797 </r>
       <r>     7.4559     5.3754    37.1561 </r>
       <r>     7.5259     6.0096    37.5769 </r>
       <r>     7.5960     6.7135    38.0471 </r>
       <r>     7.6660     7.3947    38.5649 </r>
       <r>     7.7360     7.9379    39.1207 </r>
       <r>     7.8060     8.2689    39.6998 </r>
       <r>     7.8761     8.1549    40.2708 </r>
       <r>     7.9461     7.2781    40.7805 </r>
       <r>     8.0161     5.8649    41.1912 </r>
       <r>     8.0861     4.7163    41.5215 </r>
       <r>     8.1562     4.2411    41.8185 </r>
       <r>     8.2262     3.9710    42.0965 </r>
       <r>     8.2962     3.2697    42.3255 </r>
       <r>     8.3662     2.0942    42.4721 </r>
       <r>     8.4363     0.9566    42.5391 </r>
       <r>     8.5063     0.4156    42.5682 </r>
       <r>     8.5763     0.6478    42.6136 </r>
       <r>     8.6463     1.3425    42.7076 </r>
       <r>     8.7164     1.8988    42.8406 </r>
       <r>     8.7864     1.8499    42.9701 </r>
       <r>     8.8564     1.2620    43.0585 </r>
       <r>     8.9265     0.6365    43.1031 </r>
       <r>     8.9965     0.3684    43.1289 </r>
       <r>     9.0665     0.4752    43.1621 </r>
       <r>     9.1365     0.8258    43.2200 </r>
       <r>     9.2066     1.3040    43.3113 </r>
       <r>     9.2766     1.6913    43.4297 </r>
       <r>     9.3466     1.7132    43.5497 </r>
       <r>     9.4166     1.3541    43.6445 </r>
       <r>     9.4867     0.9322    43.7098 </r>
       <r>     9.5567     0.7621    43.7631 </r>
       <r>     9.6267     0.8724    43.8242 </r>
       <r>     9.6967     1.0533    43.8980 </r>
       <r>     9.7668     1.0975    43.9749 </r>
       <r>     9.8368     1.0186    44.0462 </r>
       <r>     9.9068     1.0023    44.1164 </r>
       <r>     9.9768     1.1209    44.1949 </r>
       <r>    10.0469     1.2478    44.2822 </r>
       <r>    10.1169     1.2622    44.3706 </r>
       <r>    10.1869     1.1566    44.4516 </r>
       <r>    10.2570     1.0103    44.5224 </r>
       <r>    10.3270     0.9806    44.5910 </r>
       <r>    10.3970     1.1305    44.6702 </r>
       <r>    10.4670     1.2541    44.7580 </r>
       <r>    10.5371     1.1460    44.8383 </r>
       <r>    10.6071     0.9358    44.9038 </r>
       <r>    10.6771     0.8971    44.9666 </r>
       <r>    10.7471     1.0689    45.0415 </r>
       <r>    10.8172     1.2354    45.1280 </r>
       <r>    10.8872     1.1892    45.2113 </r>
       <r>    10.9572     0.9671    45.2790 </r>
       <r>    11.0272     0.8161    45.3361 </r>
       <r>    11.0973     0.8828    45.3979 </r>
       <r>    11.1673     1.0546    45.4718 </r>
       <r>    11.2373     1.1669    45.5535 </r>
       <r>    11.3073     1.1923    45.6370 </r>
       <r>    11.3774     1.1619    45.7184 </r>
       <r>    11.4474     1.0610    45.7927 </r>
       <r>    11.5174     0.9079    45.8562 </r>
       <r>    11.5875     0.8299    45.9143 </r>
       <r>    11.6575     0.9176    45.9786 </r>
       <r>    11.7275     1.0777    46.0541 </r>
       <r>    11.7975     1.1548    46.1349 </r>
       <r>    11.8676     1.0861    46.2110 </r>
       <r>    11.9376     0.8856    46.2730 </r>
       <r>    12.0076     0.6586    46.3191 </r>
       <r>    12.0776     0.6050    46.3615 </r>
       <r>    12.1477     0.8016    46.4176 </r>
       <r>    12.2177     1.0603    46.4919 </r>
       <r>    12.2877     1.1623    46.5733 </r>
       <r>    12.3577     1.0928    46.6498 </r>
       <r>    12.4278     0.9601    46.7170 </r>
       <r>    12.4978     0.8747    46.7783 </r>
       <r>    12.5678     0.8972    46.8411 </r>
       <r>    12.6378     0.9430    46.9071 </r>
       <r>    12.7079     0.8563    46.9671 </r>
       <r>    12.7779     0.6399    47.0119 </r>
       <r>    12.8479     0.4562    47.0438 </r>
       <r>    12.9179     0.4685    47.0766 </r>
       <r>    12.9880     0.7423    47.1286 </r>
       <r>    13.0580     1.1143    47.2067 </r>
       <r>    13.1280     1.2357    47.2932 </r>
       <r>    13.1981     0.9887    47.3624 </r>
       <r>    13.2681     0.6606    47.4087 </r>
       <r>    13.3381     0.5418    47.4466 </r>
       <r>    13.4081     0.6169    47.4898 </r>
       <r>    13.4782     0.7145    47.5399 </r>
       <r>    13.5482     0.7341    47.5913 </r>
       <r>    13.6182     0.7014    47.6404 </r>
       <r>    13.6882     0.6795    47.6880 </r>
       <r>    13.7583     0.6490    47.7334 </r>
       <r>    13.8283     0.5624    47.7728 </r>
       <r>    13.8983     0.4759    47.8061 </r>
       <r>    13.9683     0.4541    47.8379 </r>
       <r>    14.0384     0.4351    47.8684 </r>
       <r>    14.1084     0.3493    47.8929 </r>
       <r>    14.1784     0.2406    47.9097 </r>
       <r>    14.2484     0.1735    47.9219 </r>
       <r>    14.3185     0.1485    47.9322 </r>
       <r>    14.3885     0.1396    47.9420 </r>
       <r>    14.4585     0.1348    47.9515 </r>
       <r>    14.5286     0.1301    47.9606 </r>
       <r>    14.5986     0.1218    47.9691 </r>
       <r>    14.6686     0.1157    47.9772 </r>
       <r>    14.7386     0.1198    47.9856 </r>
       <r>    14.8087     0.1156    47.9937 </r>
       <r>    14.8787     0.0788    47.9992 </r>
       <r>    14.9487     0.0263    48.0011 </r>
       <r>    15.0187    -0.0051    48.0007 </r>
       <r>    15.0888    -0.0088    48.0001 </r>
       <r>    15.1588    -0.0028    47.9999 </r>
       <r>    15.2288     0.0005    47.9999 </r>
       <r>    15.2988     0.0008    48.0000 </r>
       <r>    15.3689     0.0003    48.0000 </r>
       <r>    15.4389     0.0001    48.0000 </r>
       <r>    15.5089     0.0000    48.0000 </r>
       <r>    15.5789     0.0000    48.0000 </r>
       <r>    15.6490     0.0000    48.0000 </r>
       <r>    15.7190     0.0000    48.0000 </r>
       <r>    15.7890     0.0000    48.0000 </r>
       <r>    15.8591     0.0000    48.0000 </r>
       <r>    15.9291     0.0000    48.0000 </r>
       <r>    15.9991     0.0000    48.0000 </r>
       <r>    16.0691     0.0000    48.0000 </r>
       <r>    16.1392     0.0000    48.0000 </r>
       <r>    16.2092     0.0000    48.0000 </r>
       <r>    16.2792     0.0000    48.0000 </r>
       <r>    16.3492     0.0000    48.0000 </r>
       <r>    16.4193     0.0000    48.0000 </r>
       <r>    16.4893     0.0000    48.0000 </r>
       <r>    16.5593     0.0000    48.0000 </r>
       <r>    16.6293     0.0000    48.0000 </r>
       <r>    16.6994     0.0000    48.0000 </r>
       <r>    16.7694     0.0000    48.0000 </r>
      </set>
     </set>
    </array>
   </total>
  </dos>
 </calculation>
 <structure name="finalpos" >
  <crystal>
   <varray name="basis" >
    <v>       3.93000000       0.00000000       0.00000000 </v>
    <v>       0.00000000       3.93000000       0.00000000 </v>
    <v>       0.00000000       0.00000000       3.93000000 </v>
   </varray>
   <i name="volume">     60.69845700 </i>
   <varray name="rec_basis" >
    <v>       0.25445293       0.00000000       0.00000000 </v>
    <v>       0.00000000       0.25445293       0.00000000 </v>
    <v>       0.00000000       0.00000000       0.25445293 </v>
   </varray>
  </crystal>
  <varray name="positions" >
   <v>       0.00000000       0.00000000       0.00000000 </v>
   <v>       0.00000000       0.50000000       0.50000000 </v>
   <v>       0.50000000       0.00000000       0.50000000 </v>
   <v>       0.50000000       0.50000000       0.00000000 </v>
  </varray>
 </structure>
</modeling>
