This job started on
Tue Jan 22 12:57:33 CET 2019
 running on   16 total cores
 distrk:  each k-point on   16 cores,    1 groups
 distr:  one band on    8 cores,    2 groups
 using from now: INCAR     
 vasp.5.4.4.18Apr17-6-g9f103f2a35 (build Apr 17 2018 18:25:23) complex          
  
 POSCAR found :  1 types and       4 ions

 ----------------------------------------------------------------------------- 
|                                                                             |
|  ADVICE TO THIS USER RUNNING 'VASP/VAMP'   (HEAR YOUR MASTER'S VOICE ...):  |
|                                                                             |
|      You enforced a specific xc-type in the INCAR file,                     |
|      a different type was found on the POTCAR file                          |
|          I HOPE YOU KNOW, WHAT YOU ARE  DOING                               |
|                                                                             |
 ----------------------------------------------------------------------------- 

 LDA part: xc-table for Ceperly-Alder, standard interpolation
 POSCAR found :  1 types and       4 ions
 POSCAR, INCAR and KPOINTS ok, starting setup
 FFT: planning ...
 WAVECAR not read
 entering main loop
       N       E                     dE             d eps       ncg     rms          rms(c)
DAV:   1     0.435804598261E+03    0.43580E+03   -0.17197E+04  5784   0.149E+03
DAV:   2     0.420922397583E+01   -0.43160E+03   -0.41893E+03  5776   0.515E+02
DAV:   3    -0.251829834903E+02   -0.29392E+02   -0.28485E+02  8144   0.119E+02
DAV:   4    -0.260853021336E+02   -0.90232E+00   -0.89696E+00  6224   0.279E+01
DAV:   5    -0.261107609359E+02   -0.25459E-01   -0.25426E-01  7048   0.307E+00    0.771E+00
DAV:   6    -0.245540953834E+02    0.15567E+01   -0.39700E+00  7160   0.220E+01    0.210E+00
DAV:   7    -0.244322672357E+02    0.12183E+00   -0.41394E-01  8800   0.633E+00    0.570E-01
DAV:   8    -0.244184871398E+02    0.13780E-01   -0.17032E-02  5992   0.164E+00    0.985E-02
DAV:   9    -0.244181875863E+02    0.29955E-03   -0.16830E-03  7744   0.445E-01    0.233E-02
DAV:  10    -0.244182048484E+02   -0.17262E-04   -0.43249E-05  6472   0.377E-02    0.383E-03
DAV:  11    -0.244182072414E+02   -0.23931E-05   -0.13517E-06  4600   0.126E-02    0.528E-04
DAV:  12    -0.244182070010E+02    0.24047E-06   -0.23491E-07  3192   0.397E-03
   1 F= -.24418207E+02 E0= -.24416724E+02  d E =-.244182E+02
 curvature:   0.00 expect dE= 0.000E+00 dE for cont linesearch  0.000E+00
 trial: gam= 0.00000 g(F)=  0.661E-60 g(S)=  0.000E+00 ort = 0.000E+00 (trialstep = 0.100E+01)
 search vector abs. value=  0.100E-09
 reached required accuracy - stopping structural energy minimisation
 writing wavefunctions
This job finished on
Tue Jan 22 12:57:52 CET 2019
