<?xml version="1.0" encoding="ISO-8859-1"?>
<modeling>
 <generator>
  <i name="program" type="string">vasp </i>
  <i name="version" type="string">5.4.4.18Apr17-6-g9f103f2a35  </i>
  <i name="subversion" type="string">(build Apr 17 2018 18:25:23) complex            parallel </i>
  <i name="platform" type="string">LinuxIFC </i>
  <i name="date" type="string">2019 01 22 </i>
  <i name="time" type="string">12:57:34 </i>
 </generator>
 <incar>
  <i type="string" name="SYSTEM"> Pt bulk calculation</i>
  <i type="int" name="ISTART">     0</i>
  <i type="string" name="PREC">normal</i>
  <i type="string" name="ALGO"> NORMAL</i>
  <i type="int" name="ICHARG">     2</i>
  <i type="int" name="INIWAV">     1</i>
  <i type="int" name="NELMIN">    10</i>
  <i type="int" name="IBRION">     2</i>
  <i name="EDIFF">      0.00000100</i>
  <i name="EDIFFG">     -0.02000000</i>
  <i type="int" name="NSW">    10</i>
  <i name="ENCUT">    450.00000000</i>
  <i name="POTIM">      0.20000000</i>
  <i type="int" name="ISMEAR">     2</i>
  <i name="SIGMA">      0.20000000</i>
  <v type="int" name="KPOINT_BSE">    -1     0     0     0</v>
  <i type="string" name="GGA"> 91</i>
 </incar>
 <structure name="primitive_cell" >
  <crystal>
   <varray name="basis" >
    <v>       2.00000000       2.00000000       0.00000000 </v>
    <v>       2.00000000       0.00000000      -2.00000000 </v>
    <v>       0.00000000       2.00000000      -2.00000000 </v>
   </varray>
   <i name="volume">     16.00000000 </i>
   <varray name="rec_basis" >
    <v>       0.25000000       0.25000000       0.25000000 </v>
    <v>       0.25000000      -0.25000000      -0.25000000 </v>
    <v>      -0.25000000       0.25000000      -0.25000000 </v>
   </varray>
  </crystal>
  <varray name="positions" >
   <v>       0.00000000       0.00000000       0.00000000 </v>
  </varray>
 </structure>
 <varray name="primitive_index" >
  <v type="int" >        1 </v>
 </varray>
 <kpoints>
  <generation param="Monkhorst-Pack">
   <v type="int" name="divisions">      16       16       16 </v>
   <v name="usershift">      0.00000000       0.00000000       0.00000000 </v>
   <v name="genvec1">      0.06250000       0.00000000       0.00000000 </v>
   <v name="genvec2">      0.00000000       0.06250000       0.00000000 </v>
   <v name="genvec3">      0.00000000       0.00000000       0.06250000 </v>
   <v name="shift">      0.50000000       0.50000000       0.50000000 </v>
  </generation>
  <varray name="kpointlist" >
   <v>       0.03125000       0.03125000       0.03125000 </v>
   <v>       0.09375000       0.03125000       0.03125000 </v>
   <v>       0.15625000       0.03125000       0.03125000 </v>
   <v>       0.21875000       0.03125000       0.03125000 </v>
   <v>       0.28125000       0.03125000       0.03125000 </v>
   <v>       0.34375000       0.03125000       0.03125000 </v>
   <v>       0.40625000       0.03125000       0.03125000 </v>
   <v>       0.46875000       0.03125000       0.03125000 </v>
   <v>       0.09375000       0.09375000       0.03125000 </v>
   <v>       0.15625000       0.09375000       0.03125000 </v>
   <v>       0.21875000       0.09375000       0.03125000 </v>
   <v>       0.28125000       0.09375000       0.03125000 </v>
   <v>       0.34375000       0.09375000       0.03125000 </v>
   <v>       0.40625000       0.09375000       0.03125000 </v>
   <v>       0.46875000       0.09375000       0.03125000 </v>
   <v>       0.15625000       0.15625000       0.03125000 </v>
   <v>       0.21875000       0.15625000       0.03125000 </v>
   <v>       0.28125000       0.15625000       0.03125000 </v>
   <v>       0.34375000       0.15625000       0.03125000 </v>
   <v>       0.40625000       0.15625000       0.03125000 </v>
   <v>       0.46875000       0.15625000       0.03125000 </v>
   <v>       0.21875000       0.21875000       0.03125000 </v>
   <v>       0.28125000       0.21875000       0.03125000 </v>
   <v>       0.34375000       0.21875000       0.03125000 </v>
   <v>       0.40625000       0.21875000       0.03125000 </v>
   <v>       0.46875000       0.21875000       0.03125000 </v>
   <v>       0.28125000       0.28125000       0.03125000 </v>
   <v>       0.34375000       0.28125000       0.03125000 </v>
   <v>       0.40625000       0.28125000       0.03125000 </v>
   <v>       0.46875000       0.28125000       0.03125000 </v>
   <v>       0.34375000       0.34375000       0.03125000 </v>
   <v>       0.40625000       0.34375000       0.03125000 </v>
   <v>       0.46875000       0.34375000       0.03125000 </v>
   <v>       0.40625000       0.40625000       0.03125000 </v>
   <v>       0.46875000       0.40625000       0.03125000 </v>
   <v>       0.46875000       0.46875000       0.03125000 </v>
   <v>       0.09375000       0.09375000       0.09375000 </v>
   <v>       0.15625000       0.09375000       0.09375000 </v>
   <v>       0.21875000       0.09375000       0.09375000 </v>
   <v>       0.28125000       0.09375000       0.09375000 </v>
   <v>       0.34375000       0.09375000       0.09375000 </v>
   <v>       0.40625000       0.09375000       0.09375000 </v>
   <v>       0.46875000       0.09375000       0.09375000 </v>
   <v>       0.15625000       0.15625000       0.09375000 </v>
   <v>       0.21875000       0.15625000       0.09375000 </v>
   <v>       0.28125000       0.15625000       0.09375000 </v>
   <v>       0.34375000       0.15625000       0.09375000 </v>
   <v>       0.40625000       0.15625000       0.09375000 </v>
   <v>       0.46875000       0.15625000       0.09375000 </v>
   <v>       0.21875000       0.21875000       0.09375000 </v>
   <v>       0.28125000       0.21875000       0.09375000 </v>
   <v>       0.34375000       0.21875000       0.09375000 </v>
   <v>       0.40625000       0.21875000       0.09375000 </v>
   <v>       0.46875000       0.21875000       0.09375000 </v>
   <v>       0.28125000       0.28125000       0.09375000 </v>
   <v>       0.34375000       0.28125000       0.09375000 </v>
   <v>       0.40625000       0.28125000       0.09375000 </v>
   <v>       0.46875000       0.28125000       0.09375000 </v>
   <v>       0.34375000       0.34375000       0.09375000 </v>
   <v>       0.40625000       0.34375000       0.09375000 </v>
   <v>       0.46875000       0.34375000       0.09375000 </v>
   <v>       0.40625000       0.40625000       0.09375000 </v>
   <v>       0.46875000       0.40625000       0.09375000 </v>
   <v>       0.46875000       0.46875000       0.09375000 </v>
   <v>       0.15625000       0.15625000       0.15625000 </v>
   <v>       0.21875000       0.15625000       0.15625000 </v>
   <v>       0.28125000       0.15625000       0.15625000 </v>
   <v>       0.34375000       0.15625000       0.15625000 </v>
   <v>       0.40625000       0.15625000       0.15625000 </v>
   <v>       0.46875000       0.15625000       0.15625000 </v>
   <v>       0.21875000       0.21875000       0.15625000 </v>
   <v>       0.28125000       0.21875000       0.15625000 </v>
   <v>       0.34375000       0.21875000       0.15625000 </v>
   <v>       0.40625000       0.21875000       0.15625000 </v>
   <v>       0.46875000       0.21875000       0.15625000 </v>
   <v>       0.28125000       0.28125000       0.15625000 </v>
   <v>       0.34375000       0.28125000       0.15625000 </v>
   <v>       0.40625000       0.28125000       0.15625000 </v>
   <v>       0.46875000       0.28125000       0.15625000 </v>
   <v>       0.34375000       0.34375000       0.15625000 </v>
   <v>       0.40625000       0.34375000       0.15625000 </v>
   <v>       0.46875000       0.34375000       0.15625000 </v>
   <v>       0.40625000       0.40625000       0.15625000 </v>
   <v>       0.46875000       0.40625000       0.15625000 </v>
   <v>       0.46875000       0.46875000       0.15625000 </v>
   <v>       0.21875000       0.21875000       0.21875000 </v>
   <v>       0.28125000       0.21875000       0.21875000 </v>
   <v>       0.34375000       0.21875000       0.21875000 </v>
   <v>       0.40625000       0.21875000       0.21875000 </v>
   <v>       0.46875000       0.21875000       0.21875000 </v>
   <v>       0.28125000       0.28125000       0.21875000 </v>
   <v>       0.34375000       0.28125000       0.21875000 </v>
   <v>       0.40625000       0.28125000       0.21875000 </v>
   <v>       0.46875000       0.28125000       0.21875000 </v>
   <v>       0.34375000       0.34375000       0.21875000 </v>
   <v>       0.40625000       0.34375000       0.21875000 </v>
   <v>       0.46875000       0.34375000       0.21875000 </v>
   <v>       0.40625000       0.40625000       0.21875000 </v>
   <v>       0.46875000       0.40625000       0.21875000 </v>
   <v>       0.46875000       0.46875000       0.21875000 </v>
   <v>       0.28125000       0.28125000       0.28125000 </v>
   <v>       0.34375000       0.28125000       0.28125000 </v>
   <v>       0.40625000       0.28125000       0.28125000 </v>
   <v>       0.46875000       0.28125000       0.28125000 </v>
   <v>       0.34375000       0.34375000       0.28125000 </v>
   <v>       0.40625000       0.34375000       0.28125000 </v>
   <v>       0.46875000       0.34375000       0.28125000 </v>
   <v>       0.40625000       0.40625000       0.28125000 </v>
   <v>       0.46875000       0.40625000       0.28125000 </v>
   <v>       0.46875000       0.46875000       0.28125000 </v>
   <v>       0.34375000       0.34375000       0.34375000 </v>
   <v>       0.40625000       0.34375000       0.34375000 </v>
   <v>       0.46875000       0.34375000       0.34375000 </v>
   <v>       0.40625000       0.40625000       0.34375000 </v>
   <v>       0.46875000       0.40625000       0.34375000 </v>
   <v>       0.46875000       0.46875000       0.34375000 </v>
   <v>       0.40625000       0.40625000       0.40625000 </v>
   <v>       0.46875000       0.40625000       0.40625000 </v>
   <v>       0.46875000       0.46875000       0.40625000 </v>
   <v>       0.46875000       0.46875000       0.46875000 </v>
  </varray>
  <varray name="weights" >
   <v>       0.00195312 </v>
   <v>       0.00585938 </v>
   <v>       0.00585938 </v>
   <v>       0.00585938 </v>
   <v>       0.00585938 </v>
   <v>       0.00585938 </v>
   <v>       0.00585938 </v>
   <v>       0.00585938 </v>
   <v>       0.00585938 </v>
   <v>       0.01171875 </v>
   <v>       0.01171875 </v>
   <v>       0.01171875 </v>
   <v>       0.01171875 </v>
   <v>       0.01171875 </v>
   <v>       0.01171875 </v>
   <v>       0.00585938 </v>
   <v>       0.01171875 </v>
   <v>       0.01171875 </v>
   <v>       0.01171875 </v>
   <v>       0.01171875 </v>
   <v>       0.01171875 </v>
   <v>       0.00585938 </v>
   <v>       0.01171875 </v>
   <v>       0.01171875 </v>
   <v>       0.01171875 </v>
   <v>       0.01171875 </v>
   <v>       0.00585938 </v>
   <v>       0.01171875 </v>
   <v>       0.01171875 </v>
   <v>       0.01171875 </v>
   <v>       0.00585938 </v>
   <v>       0.01171875 </v>
   <v>       0.01171875 </v>
   <v>       0.00585938 </v>
   <v>       0.01171875 </v>
   <v>       0.00585938 </v>
   <v>       0.00195312 </v>
   <v>       0.00585938 </v>
   <v>       0.00585938 </v>
   <v>       0.00585938 </v>
   <v>       0.00585938 </v>
   <v>       0.00585938 </v>
   <v>       0.00585938 </v>
   <v>       0.00585938 </v>
   <v>       0.01171875 </v>
   <v>       0.01171875 </v>
   <v>       0.01171875 </v>
   <v>       0.01171875 </v>
   <v>       0.01171875 </v>
   <v>       0.00585938 </v>
   <v>       0.01171875 </v>
   <v>       0.01171875 </v>
   <v>       0.01171875 </v>
   <v>       0.01171875 </v>
   <v>       0.00585938 </v>
   <v>       0.01171875 </v>
   <v>       0.01171875 </v>
   <v>       0.01171875 </v>
   <v>       0.00585938 </v>
   <v>       0.01171875 </v>
   <v>       0.01171875 </v>
   <v>       0.00585938 </v>
   <v>       0.01171875 </v>
   <v>       0.00585938 </v>
   <v>       0.00195312 </v>
   <v>       0.00585938 </v>
   <v>       0.00585938 </v>
   <v>       0.00585938 </v>
   <v>       0.00585938 </v>
   <v>       0.00585938 </v>
   <v>       0.00585938 </v>
   <v>       0.01171875 </v>
   <v>       0.01171875 </v>
   <v>       0.01171875 </v>
   <v>       0.01171875 </v>
   <v>       0.00585938 </v>
   <v>       0.01171875 </v>
   <v>       0.01171875 </v>
   <v>       0.01171875 </v>
   <v>       0.00585938 </v>
   <v>       0.01171875 </v>
   <v>       0.01171875 </v>
   <v>       0.00585938 </v>
   <v>       0.01171875 </v>
   <v>       0.00585938 </v>
   <v>       0.00195312 </v>
   <v>       0.00585938 </v>
   <v>       0.00585938 </v>
   <v>       0.00585938 </v>
   <v>       0.00585938 </v>
   <v>       0.00585938 </v>
   <v>       0.01171875 </v>
   <v>       0.01171875 </v>
   <v>       0.01171875 </v>
   <v>       0.00585938 </v>
   <v>       0.01171875 </v>
   <v>       0.01171875 </v>
   <v>       0.00585938 </v>
   <v>       0.01171875 </v>
   <v>       0.00585938 </v>
   <v>       0.00195312 </v>
   <v>       0.00585938 </v>
   <v>       0.00585938 </v>
   <v>       0.00585938 </v>
   <v>       0.00585938 </v>
   <v>       0.01171875 </v>
   <v>       0.01171875 </v>
   <v>       0.00585938 </v>
   <v>       0.01171875 </v>
   <v>       0.00585938 </v>
   <v>       0.00195312 </v>
   <v>       0.00585938 </v>
   <v>       0.00585938 </v>
   <v>       0.00585938 </v>
   <v>       0.01171875 </v>
   <v>       0.00585938 </v>
   <v>       0.00195312 </v>
   <v>       0.00585938 </v>
   <v>       0.00585938 </v>
   <v>       0.00195312 </v>
  </varray>
 </kpoints>
 <parameters>
  <separator name="general" >
   <i type="string" name="SYSTEM">Pt bulk calculation</i>
   <i type="logical" name="LCOMPAT"> F  </i>
  </separator>
  <separator name="electronic" >
   <i type="string" name="PREC">normal</i>
   <i name="ENMAX">    450.00000000</i>
   <i name="ENAUG">    358.96600000</i>
   <i name="EDIFF">      0.00000100</i>
   <i type="int" name="IALGO">    38</i>
   <i type="int" name="IWAVPR">    11</i>
   <i type="int" name="NBANDS">    24</i>
   <i name="NELECT">     40.00000000</i>
   <i type="int" name="TURBO">     0</i>
   <i type="int" name="IRESTART">     0</i>
   <i type="int" name="NREBOOT">     0</i>
   <i type="int" name="NMIN">     0</i>
   <i name="EREF">      0.00000000</i>
   <separator name="electronic smearing" >
    <i type="int" name="ISMEAR">     2</i>
    <i name="SIGMA">      0.20000000</i>
    <i name="KSPACING">      0.50000000</i>
    <i type="logical" name="KGAMMA"> T  </i>
   </separator>
   <separator name="electronic projectors" >
    <i type="logical" name="LREAL"> F  </i>
    <v name="ROPT">      0.00000000</v>
    <i type="int" name="LMAXPAW">  -100</i>
    <i type="int" name="LMAXMIX">     2</i>
    <i type="logical" name="NLSPLINE"> F  </i>
   </separator>
   <separator name="electronic startup" >
    <i type="int" name="ISTART">     0</i>
    <i type="int" name="ICHARG">     2</i>
    <i type="int" name="INIWAV">     1</i>
   </separator>
   <separator name="electronic spin" >
    <i type="int" name="ISPIN">     1</i>
    <i type="logical" name="LNONCOLLINEAR"> F  </i>
    <v name="MAGMOM">      1.00000000      1.00000000      1.00000000      1.00000000</v>
    <i name="NUPDOWN">     -1.00000000</i>
    <i type="logical" name="LSORBIT"> F  </i>
    <v name="SAXIS">      0.00000000      0.00000000      1.00000000</v>
    <i type="logical" name="LSPIRAL"> F  </i>
    <v name="QSPIRAL">      0.00000000      0.00000000      0.00000000</v>
    <i type="logical" name="LZEROZ"> F  </i>
   </separator>
   <separator name="electronic exchange-correlation" >
    <i type="logical" name="LASPH"> F  </i>
    <i type="logical" name="LMETAGGA"> F  </i>
   </separator>
   <separator name="electronic convergence" >
    <i type="int" name="NELM">    60</i>
    <i type="int" name="NELMDL">    -5</i>
    <i type="int" name="NELMIN">    10</i>
    <i name="ENINI">    450.00000000</i>
    <separator name="electronic convergence detail" >
     <i type="logical" name="LDIAG"> T  </i>
     <i type="logical" name="LSUBROT"> F  </i>
     <i name="WEIMIN">      0.00100000</i>
     <i name="EBREAK">      0.00000001</i>
     <i name="DEPER">      0.30000000</i>
     <i type="int" name="NRMM">     4</i>
     <i name="TIME">      0.40000000</i>
    </separator>
   </separator>
   <separator name="electronic mixer" >
    <i name="AMIX">      0.40000000</i>
    <i name="BMIX">      1.00000000</i>
    <i name="AMIN">      0.10000000</i>
    <i name="AMIX_MAG">      1.60000000</i>
    <i name="BMIX_MAG">      1.00000000</i>
    <separator name="electronic mixer details" >
     <i type="int" name="IMIX">     4</i>
     <i type="logical" name="MIXFIRST"> F  </i>
     <i type="int" name="MAXMIX">   -45</i>
     <i name="WC">    100.00000000</i>
     <i type="int" name="INIMIX">     1</i>
     <i type="int" name="MIXPRE">     1</i>
     <i type="int" name="MREMOVE">     5</i>
    </separator>
   </separator>
   <separator name="electronic dipolcorrection" >
    <i type="logical" name="LDIPOL"> F  </i>
    <i type="logical" name="LMONO"> F  </i>
    <i type="int" name="IDIPOL">     0</i>
    <i name="EPSILON">      1.00000000</i>
    <v name="DIPOL">   -100.00000000   -100.00000000   -100.00000000</v>
    <i name="EFIELD">      0.00000000</i>
   </separator>
  </separator>
  <separator name="grids" >
   <i type="int" name="NGX">    24</i>
   <i type="int" name="NGY">    24</i>
   <i type="int" name="NGZ">    24</i>
   <i type="int" name="NGXF">    48</i>
   <i type="int" name="NGYF">    48</i>
   <i type="int" name="NGZF">    48</i>
   <i type="logical" name="ADDGRID"> F  </i>
  </separator>
  <separator name="ionic" >
   <i type="int" name="NSW">    10</i>
   <i type="int" name="IBRION">     2</i>
   <i type="int" name="MDALGO">     0</i>
   <i type="int" name="ISIF">     2</i>
   <i name="PSTRESS">      0.00000000</i>
   <i name="EDIFFG">     -0.02000000</i>
   <i type="int" name="NFREE">     1</i>
   <i name="POTIM">      0.20000000</i>
   <i name="SMASS">     -3.00000000</i>
   <i name="SCALEE">      1.00000000</i>
  </separator>
  <separator name="ionic md" >
   <i name="TEBEG">      0.00010000</i>
   <i name="TEEND">      0.00010000</i>
   <i type="int" name="NBLOCK">     1</i>
   <i type="int" name="KBLOCK">    10</i>
   <i type="int" name="NPACO">   256</i>
   <i name="APACO">     16.00000000</i>
  </separator>
  <separator name="symmetry" >
   <i type="int" name="ISYM">     2</i>
   <i name="SYMPREC">      0.00001000</i>
  </separator>
  <separator name="dos" >
   <i type="int" name="LORBIT">     0</i>
   <v name="RWIGS">     -1.00000000</v>
   <i type="int" name="NEDOS">   301</i>
   <i name="EMIN">     10.00000000</i>
   <i name="EMAX">    -10.00000000</i>
   <i name="EFERMI">      0.00000000</i>
  </separator>
  <separator name="writing" >
   <i type="int" name="NWRITE">     2</i>
   <i type="logical" name="LWAVE"> T  </i>
   <i type="logical" name="LDOWNSAMPLE"> F  </i>
   <i type="logical" name="LCHARG"> T  </i>
   <i type="logical" name="LPARD"> F  </i>
   <i type="logical" name="LVTOT"> F  </i>
   <i type="logical" name="LVHAR"> F  </i>
   <i type="logical" name="LELF"> F  </i>
   <i type="logical" name="LOPTICS"> F  </i>
   <v name="STM">      0.00000000      0.00000000      0.00000000      0.00000000      0.00000000      0.00000000      0.00000000</v>
  </separator>
  <separator name="performance" >
   <i type="int" name="NPAR">     2</i>
   <i type="int" name="NSIM">     4</i>
   <i type="int" name="NBLK">    -1</i>
   <i type="logical" name="LPLANE"> T  </i>
   <i type="logical" name="LSCALAPACK"> F  </i>
   <i type="logical" name="LSCAAWARE"> F  </i>
   <i type="logical" name="LSCALU"> F  </i>
   <i type="logical" name="LASYNC"> F  </i>
   <i type="logical" name="LORBITALREAL"> F  </i>
  </separator>
  <separator name="miscellaneous" >
   <i type="int" name="IDIOT">     3</i>
   <i type="int" name="ISPECIAL">     0</i>
   <i type="logical" name="LMUSIC"> F  </i>
   <v name="POMASS">    195.08000000</v>
   <v name="DARWINR">      0.00000000</v>
   <v name="DARWINV">      1.00000000</v>
   <i type="logical" name="LCORR"> T  </i>
  </separator>
  <i type="logical" name="GGA_COMPAT"> T  </i>
  <i type="logical" name="LBERRY"> F  </i>
  <i type="int" name="ICORELEVEL">     0</i>
  <i type="logical" name="LDAU"> F  </i>
  <i type="int" name="I_CONSTRAINED_M">     0</i>
  <separator name="electronic exchange-correlation" >
   <i type="string" name="GGA">91</i>
   <i type="int" name="VOSKOWN">     0</i>
   <i type="logical" name="LHFCALC"> F  </i>
   <i type="string" name="PRECFOCK"></i>
   <i type="logical" name="LSYMGRAD"> F  </i>
   <i type="logical" name="LHFONE"> F  </i>
   <i type="logical" name="LRHFCALC"> F  </i>
   <i type="logical" name="LTHOMAS"> F  </i>
   <i type="logical" name="LMODELHF"> F  </i>
   <i name="ENCUT4O">     -1.00000000</i>
   <i type="int" name="EXXOEP">     0</i>
   <i type="int" name="FOURORBIT">     0</i>
   <i name="AEXX">      0.00000000</i>
   <i name="HFALPHA">      0.00000000</i>
   <i name="MCALPHA">      0.00000000</i>
   <i name="ALDAX">      1.00000000</i>
   <i name="AGGAX">      1.00000000</i>
   <i name="ALDAC">      1.00000000</i>
   <i name="AGGAC">      1.00000000</i>
   <i type="int" name="NKREDX">     1</i>
   <i type="int" name="NKREDY">     1</i>
   <i type="int" name="NKREDZ">     1</i>
   <i type="logical" name="SHIFTRED"> F  </i>
   <i type="logical" name="ODDONLY"> F  </i>
   <i type="logical" name="EVENONLY"> F  </i>
   <i type="int" name="LMAXFOCK">     0</i>
   <i type="int" name="NMAXFOCKAE">     0</i>
   <i type="logical" name="LFOCKAEDFT"> F  </i>
   <i name="HFSCREEN">      0.00000000</i>
   <i name="HFSCREENC">      0.00000000</i>
   <i type="int" name="NBANDSGWLOW">     0</i>
  </separator>
  <separator name="vdW DFT" >
   <i type="logical" name="LUSE_VDW"> F  </i>
   <i name="Zab_VDW">     -0.84910000</i>
   <i name="PARAM1">      0.12340000</i>
   <i name="PARAM2">      1.00000000</i>
   <i name="PARAM3">      0.00000000</i>
  </separator>
  <separator name="model GW" >
   <i type="int" name="MODEL_GW">     0</i>
   <i name="MODEL_EPS0">      9.60000000</i>
   <i name="MODEL_ALPHA">      1.00000000</i>
  </separator>
  <separator name="linear response parameters" >
   <i type="logical" name="LEPSILON"> F  </i>
   <i type="logical" name="LRPA"> F  </i>
   <i type="logical" name="LNABLA"> F  </i>
   <i type="logical" name="LVEL"> F  </i>
   <i type="int" name="KINTER">     0</i>
   <i name="CSHIFT">      0.10000000</i>
   <i name="OMEGAMAX">     -1.00000000</i>
   <i name="DEG_THRESHOLD">      0.00200000</i>
   <i name="RTIME">     -0.10000000</i>
   <i name="WPLASMAI">      0.00000000</i>
   <v name="DFIELD">      0.00000000      0.00000000      0.00000000</v>
   <v name="WPLASMA">      0.00000000      0.00000000      0.00000000      0.00000000      0.00000000      0.00000000      0.00000000      0.00000000      0.00000000</v>
  </separator>
  <separator name="orbital magnetization" >
   <i type="logical" name="NUCIND"> F  </i>
   <v name="MAGPOS">      0.00000000      0.00000000      0.00000000</v>
   <i type="logical" name="LNICSALL"> T  </i>
   <i type="logical" name="ORBITALMAG"> F  </i>
   <i type="logical" name="LMAGBLOCH"> F  </i>
   <i type="logical" name="LCHIMAG"> F  </i>
   <i type="logical" name="LGAUGE"> T  </i>
   <i type="int" name="MAGATOM">     0</i>
   <v name="MAGDIPOL">      0.00000000      0.00000000      0.00000000</v>
   <v name="AVECCONST">      0.00000000      0.00000000      0.00000000</v>
  </separator>
  <separator name="response functions" >
   <i type="logical" name="LADDER"> F  </i>
   <i type="logical" name="LRPAFORCE"> F  </i>
   <i type="logical" name="LFXC"> F  </i>
   <i type="logical" name="LHARTREE"> T  </i>
   <i type="int" name="IBSE">     0</i>
   <v type="int" name="KPOINT">    -1     0     0     0</v>
   <i type="logical" name="LTCTE"> F  </i>
   <i type="logical" name="LTETE"> F  </i>
   <i type="logical" name="LTRIPLET"> F  </i>
   <i type="logical" name="LFXCEPS"> F  </i>
   <i type="logical" name="LFXHEG"> F  </i>
   <i type="int" name="NATURALO">     2</i>
   <i type="logical" name="L2ORDER"> F  </i>
   <i type="logical" name="LMP2LT"> F  </i>
   <i type="logical" name="LUSEW"> F  </i>
   <i name="ENCUTGW">     -2.00000000</i>
   <i name="ENCUTGWSOFT">     -2.00000000</i>
   <i name="ENCUTLF">     -1.00000000</i>
   <i type="int" name="LMAXMP2">    -1</i>
   <i name="SCISSOR">      0.00000000</i>
   <i type="int" name="NOMEGA">     0</i>
   <i type="int" name="NOMEGAR">     0</i>
   <i type="int" name="NBANDSGW">    -1</i>
   <i type="int" name="NBANDSO">    -1</i>
   <i type="int" name="NBANDSV">    -1</i>
   <i type="int" name="NELM">     1</i>
   <i type="int" name="NELMHF">     1</i>
   <i type="int" name="DIM">     3</i>
   <i type="int" name="ANTIRES">     0</i>
   <i name="OMEGAMAX">    -30.00000000</i>
   <i name="OMEGAMIN">    -30.00000000</i>
   <i name="OMEGATL">   -200.00000000</i>
   <i type="int" name="OMEGAGRID">   140</i>
   <i name="CSHIFT">     -0.10000000</i>
   <i type="logical" name="SELFENERGY"> F  </i>
   <i type="logical" name="LSPECTRAL"> F  </i>
   <i type="logical" name="LSPECTRALGW"> F  </i>
   <i type="logical" name="LSINGLES"> F  </i>
   <i type="logical" name="LFERMIGW"> F  </i>
   <i type="logical" name="ODDONLYGW"> F  </i>
   <i type="logical" name="EVENONLYGW"> F  </i>
   <i type="int" name="NKREDLFX">     1</i>
   <i type="int" name="NKREDLFY">     1</i>
   <i type="int" name="NKREDLFZ">     1</i>
   <i type="int" name="MAXMEM">  2800</i>
   <i type="int" name="TELESCOPE">     0</i>
   <i type="int" name="TAUPAR">     1</i>
   <i type="int" name="OMEGAPAR">    -1</i>
   <i name="LAMBDA">      1.00000000</i>
  </separator>
  <separator name="External order field" >
   <i name="OFIELD_KAPPA">      0.00000000</i>
   <v name="OFIELD_K">      0.00000000      0.00000000      0.00000000</v>
   <i name="OFIELD_Q6_NEAR">      0.00000000</i>
   <i name="OFIELD_Q6_FAR">      0.00000000</i>
   <i name="OFIELD_A">      0.00000000</i>
  </separator>
 </parameters>
 <atominfo>
  <atoms>       4 </atoms>
  <types>       1 </types>
  <array name="atoms" >
   <dimension dim="1">ion</dimension>
   <field type="string">element</field>
   <field type="int">atomtype</field>
   <set>
    <rc><c>Pt</c><c>   1</c></rc>
    <rc><c>Pt</c><c>   1</c></rc>
    <rc><c>Pt</c><c>   1</c></rc>
    <rc><c>Pt</c><c>   1</c></rc>
   </set>
  </array>
  <array name="atomtypes" >
   <dimension dim="1">type</dimension>
   <field type="int">atomspertype</field>
   <field type="string">element</field>
   <field>mass</field>
   <field>valence</field>
   <field type="string">pseudopotential</field>
   <set>
    <rc><c>   4</c><c>Pt</c><c>    195.08000000</c><c>     10.00000000</c><c> PAW_PBE Pt 05Jan2001                   </c></rc>
   </set>
  </array>
 </atominfo>
 <structure name="initialpos" >
  <crystal>
   <varray name="basis" >
    <v>       4.00000000       0.00000000       0.00000000 </v>
    <v>       0.00000000       4.00000000       0.00000000 </v>
    <v>       0.00000000       0.00000000       4.00000000 </v>
   </varray>
   <i name="volume">     64.00000000 </i>
   <varray name="rec_basis" >
    <v>       0.25000000       0.00000000       0.00000000 </v>
    <v>       0.00000000       0.25000000       0.00000000 </v>
    <v>       0.00000000       0.00000000       0.25000000 </v>
   </varray>
  </crystal>
  <varray name="positions" >
   <v>       0.00000000       0.00000000       0.00000000 </v>
   <v>       0.00000000       0.50000000       0.50000000 </v>
   <v>       0.50000000       0.00000000       0.50000000 </v>
   <v>       0.50000000       0.50000000       0.00000000 </v>
  </varray>
 </structure>
 <calculation>
  <scstep>
   <time name="dav">    1.03    1.03</time>
   <time name="total">    1.05    1.09</time>
   <energy>
    <i name="alphaZ">    363.73820000 </i>
    <i name="ewald">  -3301.05193786 </i>
    <i name="hartreedc">   -307.27343439 </i>
    <i name="XCdc">     13.30623768 </i>
    <i name="pawpsdc">   2293.79710215 </i>
    <i name="pawaedc">  -2181.03440391 </i>
    <i name="eentropy">     -0.00095175 </i>
    <i name="bandstr">    638.78563584 </i>
    <i name="atom">   2915.53815049 </i>
    <i name="e_fr_energy">    435.80459826 </i>
    <i name="e_wo_entrp">    435.80555001 </i>
    <i name="e_0_energy">    435.80483620 </i>
   </energy>
  </scstep>
  <scstep>
   <time name="dav">    1.00    1.01</time>
   <time name="total">    1.01    1.01</time>
   <energy>
    <i name="e_fr_energy">      4.20922398 </i>
    <i name="e_wo_entrp">      4.21087843 </i>
    <i name="e_0_energy">      4.20963759 </i>
   </energy>
  </scstep>
  <scstep>
   <time name="dav">    1.35    1.35</time>
   <time name="total">    1.36    1.36</time>
   <energy>
    <i name="e_fr_energy">    -25.18298349 </i>
    <i name="e_wo_entrp">    -25.18229210 </i>
    <i name="e_0_energy">    -25.18281064 </i>
   </energy>
  </scstep>
  <scstep>
   <time name="dav">    1.06    1.06</time>
   <time name="total">    1.07    1.07</time>
   <energy>
    <i name="e_fr_energy">    -26.08530213 </i>
    <i name="e_wo_entrp">    -26.08379546 </i>
    <i name="e_0_energy">    -26.08492547 </i>
   </energy>
  </scstep>
  <scstep>
   <time name="dav">    1.18    1.18</time>
   <time name="total">    1.26    1.26</time>
   <energy>
    <i name="e_fr_energy">    -26.11076094 </i>
    <i name="e_wo_entrp">    -26.10891736 </i>
    <i name="e_0_energy">    -26.11030004 </i>
   </energy>
  </scstep>
  <scstep>
   <time name="dav">    1.19    1.19</time>
   <time name="total">    1.28    1.28</time>
   <energy>
    <i name="e_fr_energy">    -24.55409538 </i>
    <i name="e_wo_entrp">    -24.54819299 </i>
    <i name="e_0_energy">    -24.55261978 </i>
   </energy>
  </scstep>
  <scstep>
   <time name="dav">    1.41    1.41</time>
   <time name="total">    1.50    1.50</time>
   <energy>
    <i name="e_fr_energy">    -24.43226724 </i>
    <i name="e_wo_entrp">    -24.42627942 </i>
    <i name="e_0_energy">    -24.43077028 </i>
   </energy>
  </scstep>
  <scstep>
   <time name="dav">    1.03    1.03</time>
   <time name="total">    1.12    1.12</time>
   <energy>
    <i name="e_fr_energy">    -24.41848714 </i>
    <i name="e_wo_entrp">    -24.41257106 </i>
    <i name="e_0_energy">    -24.41700812 </i>
   </energy>
  </scstep>
  <scstep>
   <time name="dav">    1.28    1.28</time>
   <time name="total">    1.37    1.37</time>
   <energy>
    <i name="e_fr_energy">    -24.41818759 </i>
    <i name="e_wo_entrp">    -24.41224614 </i>
    <i name="e_0_energy">    -24.41670222 </i>
   </energy>
  </scstep>
  <scstep>
   <time name="dav">    1.10    1.10</time>
   <time name="total">    1.19    1.19</time>
   <energy>
    <i name="e_fr_energy">    -24.41820485 </i>
    <i name="e_wo_entrp">    -24.41227111 </i>
    <i name="e_0_energy">    -24.41672141 </i>
   </energy>
  </scstep>
  <scstep>
   <time name="dav">    0.87    0.87</time>
   <time name="total">    0.96    0.96</time>
   <energy>
    <i name="e_fr_energy">    -24.41820724 </i>
    <i name="e_wo_entrp">    -24.41227394 </i>
    <i name="e_0_energy">    -24.41672392 </i>
   </energy>
  </scstep>
  <scstep>
   <time name="dav">    0.68    0.68</time>
   <time name="total">    0.70    0.70</time>
   <energy>
    <i name="alphaZ">    363.73820000 </i>
    <i name="ewald">  -3301.05193786 </i>
    <i name="hartreedc">   -266.34167323 </i>
    <i name="XCdc">     11.69398564 </i>
    <i name="pawpsdc">   2367.04231934 </i>
    <i name="pawaedc">  -2263.76455957 </i>
    <i name="eentropy">     -0.00593317 </i>
    <i name="bandstr">    148.73324134 </i>
    <i name="atom">   2915.53815049 </i>
    <i name="e_fr_energy">    -24.41820700 </i>
    <i name="e_wo_entrp">    -24.41227383 </i>
    <i name="e_0_energy">    -24.41672371 </i>
   </energy>
  </scstep>
  <structure>
   <crystal>
    <varray name="basis" >
     <v>       4.00000000       0.00000000       0.00000000 </v>
     <v>       0.00000000       4.00000000       0.00000000 </v>
     <v>       0.00000000       0.00000000       4.00000000 </v>
    </varray>
    <i name="volume">     64.00000000 </i>
    <varray name="rec_basis" >
     <v>       0.25000000       0.00000000       0.00000000 </v>
     <v>       0.00000000       0.25000000       0.00000000 </v>
     <v>       0.00000000       0.00000000       0.25000000 </v>
    </varray>
   </crystal>
   <varray name="positions" >
    <v>       0.00000000       0.00000000       0.00000000 </v>
    <v>       0.00000000       0.50000000       0.50000000 </v>
    <v>       0.50000000       0.00000000       0.50000000 </v>
    <v>       0.50000000       0.50000000       0.00000000 </v>
   </varray>
  </structure>
  <varray name="forces" >
   <v>       0.00000000      -0.00000000      -0.00000000 </v>
   <v>       0.00000000       0.00000000      -0.00000000 </v>
   <v>      -0.00000000      -0.00000000       0.00000000 </v>
   <v>      -0.00000000       0.00000000      -0.00000000 </v>
  </varray>
  <varray name="stress" >
   <v>     -20.14629509      -0.00000000       0.00000000 </v>
   <v>      -0.00000000     -20.14629509       0.00000000 </v>
   <v>      -0.00000000      -0.00000000     -20.14629509 </v>
  </varray>
  <energy>
   <i name="e_fr_energy">    -24.41820700 </i>
   <i name="e_wo_entrp">    -24.41672371 </i>
   <i name="e_0_energy">     -0.00593317 </i>
  </energy>
  <time name="totalsc">   15.03   15.86</time>
  <eigenvalues>
   <array>
    <dimension dim="1">band</dimension>
    <dimension dim="2">kpoint</dimension>
    <dimension dim="3">spin</dimension>
    <field>eigene</field>
    <field>occ</field>
    <set>
     <set comment="spin 1">
      <set comment="kpoint 1">
       <r>   -2.4788    1.0000 </r>
       <r>    0.5902    1.0000 </r>
       <r>    0.5902    1.0000 </r>
       <r>    0.5902    1.0000 </r>
       <r>    0.9998    1.0000 </r>
       <r>    0.9998    1.0000 </r>
       <r>    0.9998    1.0000 </r>
       <r>    3.5501    1.0000 </r>
       <r>    3.5809    1.0000 </r>
       <r>    3.5809    1.0000 </r>
       <r>    5.5276    1.0000 </r>
       <r>    5.5276    1.0000 </r>
       <r>    6.9941    0.6410 </r>
       <r>    6.9941    0.6410 </r>
       <r>    6.9941    0.6410 </r>
       <r>    7.2638   -0.0365 </r>
       <r>    7.2638   -0.0365 </r>
       <r>    7.2638   -0.0365 </r>
       <r>    7.4384    0.0048 </r>
       <r>    7.4384    0.0048 </r>
       <r>    7.4384    0.0048 </r>
       <r>    9.1178    0.0000 </r>
       <r>    9.1178    0.0000 </r>
       <r>    9.1178    0.0000 </r>
      </set>
      <set comment="kpoint 2">
       <r>   -2.3795    1.0000 </r>
       <r>    0.6263    1.0000 </r>
       <r>    0.6616    1.0000 </r>
       <r>    0.6616    1.0000 </r>
       <r>    1.0399    1.0000 </r>
       <r>    1.0611    1.0000 </r>
       <r>    1.0611    1.0000 </r>
       <r>    3.4927    1.0000 </r>
       <r>    3.6265    1.0000 </r>
       <r>    3.6302    1.0000 </r>
       <r>    5.4595    1.0000 </r>
       <r>    5.5543    1.0000 </r>
       <r>    6.7395    1.0183 </r>
       <r>    6.7395    1.0183 </r>
       <r>    6.9026    0.9842 </r>
       <r>    6.9026    0.9842 </r>
       <r>    6.9498    0.8423 </r>
       <r>    7.1062    0.1074 </r>
       <r>    7.3299   -0.0079 </r>
       <r>    7.4320    0.0049 </r>
       <r>    7.4320    0.0049 </r>
       <r>    8.6114    0.0000 </r>
       <r>    9.6931    0.0000 </r>
       <r>    9.6931    0.0000 </r>
      </set>
      <set comment="kpoint 3">
       <r>   -2.1833    1.0000 </r>
       <r>    0.6910    1.0000 </r>
       <r>    0.8004    1.0000 </r>
       <r>    0.8004    1.0000 </r>
       <r>    1.1193    1.0000 </r>
       <r>    1.1836    1.0000 </r>
       <r>    1.1836    1.0000 </r>
       <r>    3.3741    1.0000 </r>
       <r>    3.7253    1.0000 </r>
       <r>    3.7284    1.0000 </r>
       <r>    5.3286    1.0000 </r>
       <r>    5.6068    1.0000 </r>
       <r>    6.0884    1.0000 </r>
       <r>    6.0884    1.0000 </r>
       <r>    6.7032    1.0052 </r>
       <r>    6.7032    1.0052 </r>
       <r>    6.7811    1.0378 </r>
       <r>    6.8484    1.0482 </r>
       <r>    7.1435    0.0079 </r>
       <r>    7.4308    0.0049 </r>
       <r>    7.4308    0.0049 </r>
       <r>    7.8744    0.0000 </r>
       <r>   10.4540    0.0000 </r>
       <r>   10.4540    0.0000 </r>
      </set>
      <set comment="kpoint 4">
       <r>   -1.8947    1.0000 </r>
       <r>    0.7669    1.0000 </r>
       <r>    0.9978    1.0000 </r>
       <r>    0.9978    1.0000 </r>
       <r>    1.2363    1.0000 </r>
       <r>    1.3662    1.0000 </r>
       <r>    1.3662    1.0000 </r>
       <r>    3.2058    1.0000 </r>
       <r>    3.8724    1.0000 </r>
       <r>    3.8745    1.0000 </r>
       <r>    5.1463    1.0000 </r>
       <r>    5.4240    1.0000 </r>
       <r>    5.4240    1.0000 </r>
       <r>    5.6838    1.0000 </r>
       <r>    6.2573    1.0000 </r>
       <r>    6.4261    0.9997 </r>
       <r>    6.4261    0.9997 </r>
       <r>    6.6487    0.9960 </r>
       <r>    6.9494    0.8440 </r>
       <r>    7.1780   -0.0389 </r>
       <r>    7.4306    0.0049 </r>
       <r>    7.4306    0.0049 </r>
       <r>   11.2694    0.0000 </r>
       <r>   11.2694    0.0000 </r>
      </set>
      <set comment="kpoint 5">
       <r>   -1.5223    1.0000 </r>
       <r>    0.8222    1.0000 </r>
       <r>    1.2389    1.0000 </r>
       <r>    1.2389    1.0000 </r>
       <r>    1.3886    1.0000 </r>
       <r>    1.6072    1.0000 </r>
       <r>    1.6072    1.0000 </r>
       <r>    2.9987    1.0000 </r>
       <r>    4.0629    1.0000 </r>
       <r>    4.0671    1.0000 </r>
       <r>    4.7834    1.0000 </r>
       <r>    4.7834    1.0000 </r>
       <r>    4.9321    1.0000 </r>
       <r>    5.5857    1.0000 </r>
       <r>    5.7830    1.0000 </r>
       <r>    6.0941    1.0000 </r>
       <r>    6.0941    1.0000 </r>
       <r>    6.3413    1.0000 </r>
       <r>    6.6292    0.9952 </r>
       <r>    6.7898    1.0416 </r>
       <r>    7.4308    0.0049 </r>
       <r>    7.4308    0.0049 </r>
       <r>   12.0931    0.0000 </r>
       <r>   12.0931    0.0000 </r>
      </set>
      <set comment="kpoint 6">
       <r>   -1.0801    1.0000 </r>
       <r>    0.8063    1.0000 </r>
       <r>    1.4984    1.0000 </r>
       <r>    1.4984    1.0000 </r>
       <r>    1.5725    1.0000 </r>
       <r>    1.9032    1.0000 </r>
       <r>    1.9032    1.0000 </r>
       <r>    2.7648    1.0000 </r>
       <r>    4.1800    1.0000 </r>
       <r>    4.1800    1.0000 </r>
       <r>    4.2779    1.0000 </r>
       <r>    4.3041    1.0000 </r>
       <r>    4.7271    1.0000 </r>
       <r>    4.9493    1.0000 </r>
       <r>    5.7481    1.0000 </r>
       <r>    5.7481    1.0000 </r>
       <r>    5.9014    1.0000 </r>
       <r>    5.9815    1.0000 </r>
       <r>    6.1649    1.0000 </r>
       <r>    6.6401    0.9955 </r>
       <r>    7.4311    0.0049 </r>
       <r>    7.4311    0.0049 </r>
       <r>   12.8757    0.0000 </r>
       <r>   12.8757    0.0000 </r>
      </set>
      <set comment="kpoint 7">
       <r>   -0.5915    1.0000 </r>
       <r>    0.6575    1.0000 </r>
       <r>    1.7333    1.0000 </r>
       <r>    1.7333    1.0000 </r>
       <r>    1.7836    1.0000 </r>
       <r>    2.2518    1.0000 </r>
       <r>    2.2518    1.0000 </r>
       <r>    2.5159    1.0000 </r>
       <r>    3.6211    1.0000 </r>
       <r>    3.6211    1.0000 </r>
       <r>    4.3664    1.0000 </r>
       <r>    4.4947    1.0000 </r>
       <r>    4.5823    1.0000 </r>
       <r>    4.7134    1.0000 </r>
       <r>    5.4475    1.0000 </r>
       <r>    5.4475    1.0000 </r>
       <r>    5.6080    1.0000 </r>
       <r>    5.7392    1.0000 </r>
       <r>    6.0356    1.0000 </r>
       <r>    6.4878    0.9988 </r>
       <r>    7.4314    0.0049 </r>
       <r>    7.4314    0.0049 </r>
       <r>   13.4519    0.0000 </r>
       <r>   13.4519    0.0000 </r>
      </set>
      <set comment="kpoint 8">
       <r>   -0.0961    1.0000 </r>
       <r>    0.3445    1.0000 </r>
       <r>    1.8795    1.0000 </r>
       <r>    1.8795    1.0000 </r>
       <r>    2.0162    1.0000 </r>
       <r>    2.2631    1.0000 </r>
       <r>    2.6530    1.0000 </r>
       <r>    2.6530    1.0000 </r>
       <r>    3.1123    1.0000 </r>
       <r>    3.1123    1.0000 </r>
       <r>    4.2755    1.0000 </r>
       <r>    4.2816    1.0000 </r>
       <r>    4.8971    1.0000 </r>
       <r>    4.9899    1.0000 </r>
       <r>    5.2420    1.0000 </r>
       <r>    5.2667    1.0000 </r>
       <r>    5.2667    1.0000 </r>
       <r>    5.3449    1.0000 </r>
       <r>    6.1812    1.0000 </r>
       <r>    6.3335    1.0000 </r>
       <r>    7.4316    0.0049 </r>
       <r>    7.4316    0.0049 </r>
       <r>   13.6080    0.0000 </r>
       <r>   13.6080    0.0000 </r>
      </set>
      <set comment="kpoint 9">
       <r>   -2.2816    1.0000 </r>
       <r>    0.6984    1.0000 </r>
       <r>    0.6984    1.0000 </r>
       <r>    0.7238    1.0000 </r>
       <r>    1.1004    1.0000 </r>
       <r>    1.1004    1.0000 </r>
       <r>    1.1283    1.0000 </r>
       <r>    3.4610    1.0000 </r>
       <r>    3.6496    1.0000 </r>
       <r>    3.6733    1.0000 </r>
       <r>    5.4410    1.0000 </r>
       <r>    5.5380    1.0000 </r>
       <r>    6.4349    0.9996 </r>
       <r>    6.5294    0.9977 </r>
       <r>    6.5294    0.9977 </r>
       <r>    6.7916    1.0424 </r>
       <r>    6.8841    1.0169 </r>
       <r>    6.8841    1.0169 </r>
       <r>    7.3286   -0.0083 </r>
       <r>    7.3286   -0.0083 </r>
       <r>    7.3701    0.0015 </r>
       <r>    9.2003    0.0000 </r>
       <r>    9.2003    0.0000 </r>
       <r>   10.1323    0.0000 </r>
      </set>
      <set comment="kpoint 10">
       <r>   -2.0880    1.0000 </r>
       <r>    0.7643    1.0000 </r>
       <r>    0.8385    1.0000 </r>
       <r>    0.8453    1.0000 </r>
       <r>    1.1783    1.0000 </r>
       <r>    1.2213    1.0000 </r>
       <r>    1.2609    1.0000 </r>
       <r>    3.3610    1.0000 </r>
       <r>    3.7338    1.0000 </r>
       <r>    3.7605    1.0000 </r>
       <r>    5.3326    1.0000 </r>
       <r>    5.5824    1.0000 </r>
       <r>    5.8755    1.0000 </r>
       <r>    5.9123    1.0000 </r>
       <r>    6.1733    1.0000 </r>
       <r>    6.6112    0.9951 </r>
       <r>    6.7050    1.0057 </r>
       <r>    6.7766    1.0356 </r>
       <r>    7.1525   -0.0083 </r>
       <r>    7.3211   -0.0109 </r>
       <r>    7.3325   -0.0071 </r>
       <r>    8.4906    0.0000 </r>
       <r>    9.9303    0.0000 </r>
       <r>   10.7979    0.0000 </r>
      </set>
      <set comment="kpoint 11">
       <r>   -1.8034    1.0000 </r>
       <r>    0.8418    1.0000 </r>
       <r>    1.0211    1.0000 </r>
       <r>    1.0380    1.0000 </r>
       <r>    1.2930    1.0000 </r>
       <r>    1.4016    1.0000 </r>
       <r>    1.4543    1.0000 </r>
       <r>    3.2037    1.0000 </r>
       <r>    3.8750    1.0000 </r>
       <r>    3.8874    1.0000 </r>
       <r>    5.1658    1.0000 </r>
       <r>    5.2226    1.0000 </r>
       <r>    5.3197    1.0000 </r>
       <r>    5.6676    1.0000 </r>
       <r>    5.6918    1.0000 </r>
       <r>    6.3566    0.9999 </r>
       <r>    6.4481    0.9995 </r>
       <r>    6.5626    0.9964 </r>
       <r>    6.9453    0.8595 </r>
       <r>    7.3149   -0.0133 </r>
       <r>    7.3152   -0.0132 </r>
       <r>    7.7884    0.0000 </r>
       <r>   10.6791    0.0000 </r>
       <r>   11.5561    0.0000 </r>
      </set>
      <set comment="kpoint 12">
       <r>   -1.4359    1.0000 </r>
       <r>    0.8988    1.0000 </r>
       <r>    1.2433    1.0000 </r>
       <r>    1.2825    1.0000 </r>
       <r>    1.4420    1.0000 </r>
       <r>    1.6391    1.0000 </r>
       <r>    1.6986    1.0000 </r>
       <r>    3.0057    1.0000 </r>
       <r>    4.0404    1.0000 </r>
       <r>    4.0660    1.0000 </r>
       <r>    4.5994    1.0000 </r>
       <r>    4.7225    1.0000 </r>
       <r>    4.9787    1.0000 </r>
       <r>    5.1409    1.0000 </r>
       <r>    5.7808    1.0000 </r>
       <r>    6.0468    1.0000 </r>
       <r>    6.1335    1.0000 </r>
       <r>    6.2602    1.0000 </r>
       <r>    6.6909    1.0020 </r>
       <r>    7.2214   -0.0510 </r>
       <r>    7.3067   -0.0166 </r>
       <r>    7.3111   -0.0148 </r>
       <r>   11.3971    0.0000 </r>
       <r>   12.3403    0.0000 </r>
      </set>
      <set comment="kpoint 13">
       <r>   -0.9993    1.0000 </r>
       <r>    0.8832    1.0000 </r>
       <r>    1.4974    1.0000 </r>
       <r>    1.5472    1.0000 </r>
       <r>    1.6217    1.0000 </r>
       <r>    1.9300    1.0000 </r>
       <r>    1.9786    1.0000 </r>
       <r>    2.7802    1.0000 </r>
       <r>    4.0183    1.0000 </r>
       <r>    4.1479    1.0000 </r>
       <r>    4.1776    1.0000 </r>
       <r>    4.2985    1.0000 </r>
       <r>    4.6242    1.0000 </r>
       <r>    4.8404    1.0000 </r>
       <r>    5.7217    1.0000 </r>
       <r>    5.7983    1.0000 </r>
       <r>    5.9131    1.0000 </r>
       <r>    5.9172    1.0000 </r>
       <r>    6.3206    1.0000 </r>
       <r>    6.8600    1.0420 </r>
       <r>    7.3033   -0.0180 </r>
       <r>    7.3082   -0.0159 </r>
       <r>   12.0349    0.0000 </r>
       <r>   13.0542    0.0000 </r>
      </set>
      <set comment="kpoint 14">
       <r>   -0.5162    1.0000 </r>
       <r>    0.7320    1.0000 </r>
       <r>    1.7498    1.0000 </r>
       <r>    1.7892    1.0000 </r>
       <r>    1.8276    1.0000 </r>
       <r>    2.2702    1.0000 </r>
       <r>    2.2798    1.0000 </r>
       <r>    2.5394    1.0000 </r>
       <r>    3.4892    1.0000 </r>
       <r>    3.6103    1.0000 </r>
       <r>    4.1906    1.0000 </r>
       <r>    4.2560    1.0000 </r>
       <r>    4.5688    1.0000 </r>
       <r>    4.8894    1.0000 </r>
       <r>    5.4416    1.0000 </r>
       <r>    5.4978    1.0000 </r>
       <r>    5.5541    1.0000 </r>
       <r>    5.8927    1.0000 </r>
       <r>    6.0727    1.0000 </r>
       <r>    6.6248    0.9951 </r>
       <r>    7.3025   -0.0184 </r>
       <r>    7.3060   -0.0169 </r>
       <r>   12.5373    0.0000 </r>
       <r>   13.2596    0.0000 </r>
      </set>
      <set comment="kpoint 15">
       <r>   -0.0244    1.0000 </r>
       <r>    0.4161    1.0000 </r>
       <r>    1.9254    1.0000 </r>
       <r>    1.9388    1.0000 </r>
       <r>    2.0540    1.0000 </r>
       <r>    2.2941    1.0000 </r>
       <r>    2.6077    1.0000 </r>
       <r>    2.6530    1.0000 </r>
       <r>    3.0295    1.0000 </r>
       <r>    3.1218    1.0000 </r>
       <r>    4.0963    1.0000 </r>
       <r>    4.1102    1.0000 </r>
       <r>    4.8720    1.0000 </r>
       <r>    5.1388    1.0000 </r>
       <r>    5.2030    1.0000 </r>
       <r>    5.2829    1.0000 </r>
       <r>    5.3042    1.0000 </r>
       <r>    5.4881    1.0000 </r>
       <r>    6.2435    1.0000 </r>
       <r>    6.4268    0.9997 </r>
       <r>    7.3030   -0.0182 </r>
       <r>    7.3043   -0.0176 </r>
       <r>   12.8810    0.0000 </r>
       <r>   13.1082    0.0000 </r>
      </set>
      <set comment="kpoint 16">
       <r>   -1.8996    1.0000 </r>
       <r>    0.9070    1.0000 </r>
       <r>    0.9070    1.0000 </r>
       <r>    0.9378    1.0000 </r>
       <r>    1.2960    1.0000 </r>
       <r>    1.2960    1.0000 </r>
       <r>    1.4083    1.0000 </r>
       <r>    3.3021    1.0000 </r>
       <r>    3.7846    1.0000 </r>
       <r>    3.8249    1.0000 </r>
       <r>    5.2880    1.0000 </r>
       <r>    5.5215    1.0000 </r>
       <r>    5.5215    1.0000 </r>
       <r>    5.5662    1.0000 </r>
       <r>    5.5915    1.0000 </r>
       <r>    6.4466    0.9995 </r>
       <r>    6.6411    0.9956 </r>
       <r>    6.6411    0.9956 </r>
       <r>    7.1275    0.0440 </r>
       <r>    7.1275    0.0440 </r>
       <r>    7.2274   -0.0500 </r>
       <r>    9.1917    0.0000 </r>
       <r>    9.1917    0.0000 </r>
       <r>   11.3674    0.0000 </r>
      </set>
      <set comment="kpoint 17">
       <r>   -1.6228    1.0000 </r>
       <r>    0.9880    1.0000 </r>
       <r>    1.0803    1.0000 </r>
       <r>    1.1107    1.0000 </r>
       <r>    1.4059    1.0000 </r>
       <r>    1.4715    1.0000 </r>
       <r>    1.6130    1.0000 </r>
       <r>    3.1803    1.0000 </r>
       <r>    3.9010    1.0000 </r>
       <r>    3.9148    1.0000 </r>
       <r>    4.8915    1.0000 </r>
       <r>    5.0822    1.0000 </r>
       <r>    5.1050    1.0000 </r>
       <r>    5.1664    1.0000 </r>
       <r>    5.6759    1.0000 </r>
       <r>    6.2223    1.0000 </r>
       <r>    6.4260    0.9997 </r>
       <r>    6.4703    0.9991 </r>
       <r>    6.8893    1.0089 </r>
       <r>    7.1063    0.1071 </r>
       <r>    7.1554   -0.0128 </r>
       <r>    8.4530    0.0000 </r>
       <r>    9.8874    0.0000 </r>
       <r>   12.0529    0.0000 </r>
      </set>
      <set comment="kpoint 18">
       <r>   -1.2654    1.0000 </r>
       <r>    1.0484    1.0000 </r>
       <r>    1.2725    1.0000 </r>
       <r>    1.3616    1.0000 </r>
       <r>    1.5484    1.0000 </r>
       <r>    1.7026    1.0000 </r>
       <r>    1.8567    1.0000 </r>
       <r>    3.0087    1.0000 </r>
       <r>    4.0108    1.0000 </r>
       <r>    4.0778    1.0000 </r>
       <r>    4.2986    1.0000 </r>
       <r>    4.5948    1.0000 </r>
       <r>    4.6149    1.0000 </r>
       <r>    5.0209    1.0000 </r>
       <r>    5.8131    1.0000 </r>
       <r>    5.9500    1.0000 </r>
       <r>    6.1478    1.0000 </r>
       <r>    6.1964    1.0000 </r>
       <r>    6.6194    0.9951 </r>
       <r>    7.0923    0.1583 </r>
       <r>    7.1127    0.0863 </r>
       <r>    7.8160    0.0000 </r>
       <r>   10.5429    0.0000 </r>
       <r>   12.7588    0.0000 </r>
      </set>
      <set comment="kpoint 19">
       <r>   -0.8403    1.0000 </r>
       <r>    1.0331    1.0000 </r>
       <r>    1.5094    1.0000 </r>
       <r>    1.6369    1.0000 </r>
       <r>    1.7196    1.0000 </r>
       <r>    1.9836    1.0000 </r>
       <r>    2.1124    1.0000 </r>
       <r>    2.8046    1.0000 </r>
       <r>    3.7530    1.0000 </r>
       <r>    4.0654    1.0000 </r>
       <r>    4.0796    1.0000 </r>
       <r>    4.2004    1.0000 </r>
       <r>    4.3021    1.0000 </r>
       <r>    4.9360    1.0000 </r>
       <r>    5.6620    1.0000 </r>
       <r>    5.8391    1.0000 </r>
       <r>    5.8645    1.0000 </r>
       <r>    5.9860    1.0000 </r>
       <r>    6.2951    1.0000 </r>
       <r>    7.0830    0.1956 </r>
       <r>    7.0893    0.1699 </r>
       <r>    7.3215   -0.0108 </r>
       <r>   11.1285    0.0000 </r>
       <r>   12.9118    0.0000 </r>
      </set>
      <set comment="kpoint 20">
       <r>   -0.3685    1.0000 </r>
       <r>    0.8766    1.0000 </r>
       <r>    1.7741    1.0000 </r>
       <r>    1.8951    1.0000 </r>
       <r>    1.9147    1.0000 </r>
       <r>    2.3060    1.0000 </r>
       <r>    2.3450    1.0000 </r>
       <r>    2.5823    1.0000 </r>
       <r>    3.2689    1.0000 </r>
       <r>    3.5853    1.0000 </r>
       <r>    3.9305    1.0000 </r>
       <r>    4.0181    1.0000 </r>
       <r>    4.5648    1.0000 </r>
       <r>    5.0061    1.0000 </r>
       <r>    5.4180    1.0000 </r>
       <r>    5.5168    1.0000 </r>
       <r>    5.5493    1.0000 </r>
       <r>    5.9241    1.0000 </r>
       <r>    6.1867    1.0000 </r>
       <r>    6.9535    0.8277 </r>
       <r>    7.0770    0.2215 </r>
       <r>    7.0778    0.2183 </r>
       <r>   11.6209    0.0000 </r>
       <r>   12.6290    0.0000 </r>
      </set>
      <set comment="kpoint 21">
       <r>    0.1152    1.0000 </r>
       <r>    0.5547    1.0000 </r>
       <r>    2.0045    1.0000 </r>
       <r>    2.0548    1.0000 </r>
       <r>    2.1283    1.0000 </r>
       <r>    2.3536    1.0000 </r>
       <r>    2.5430    1.0000 </r>
       <r>    2.6331    1.0000 </r>
       <r>    2.9063    1.0000 </r>
       <r>    3.1333    1.0000 </r>
       <r>    3.8483    1.0000 </r>
       <r>    3.9096    1.0000 </r>
       <r>    4.8583    1.0000 </r>
       <r>    5.1774    1.0000 </r>
       <r>    5.2317    1.0000 </r>
       <r>    5.2949    1.0000 </r>
       <r>    5.3451    1.0000 </r>
       <r>    5.5537    1.0000 </r>
       <r>    6.4114    0.9998 </r>
       <r>    6.6622    0.9973 </r>
       <r>    7.0734    0.2374 </r>
       <r>    7.0737    0.2364 </r>
       <r>   12.0160    0.0000 </r>
       <r>   12.3380    0.0000 </r>
      </set>
      <set comment="kpoint 22">
       <r>   -1.3575    1.0000 </r>
       <r>    1.1854    1.0000 </r>
       <r>    1.1975    1.0000 </r>
       <r>    1.1975    1.0000 </r>
       <r>    1.5745    1.0000 </r>
       <r>    1.5745    1.0000 </r>
       <r>    1.8218    1.0000 </r>
       <r>    3.1109    1.0000 </r>
       <r>    3.9533    1.0000 </r>
       <r>    3.9804    1.0000 </r>
       <r>    4.4967    1.0000 </r>
       <r>    4.4967    1.0000 </r>
       <r>    4.7867    1.0000 </r>
       <r>    5.1028    1.0000 </r>
       <r>    5.7632    1.0000 </r>
       <r>    6.0336    1.0000 </r>
       <r>    6.3102    1.0000 </r>
       <r>    6.3102    1.0000 </r>
       <r>    6.8391    1.0508 </r>
       <r>    6.8391    1.0508 </r>
       <r>    7.0139    0.5382 </r>
       <r>    9.1052    0.0000 </r>
       <r>    9.1052    0.0000 </r>
       <r>   12.6550    0.0000 </r>
      </set>
      <set comment="kpoint 23">
       <r>   -1.0153    1.0000 </r>
       <r>    1.2629    1.0000 </r>
       <r>    1.3406    1.0000 </r>
       <r>    1.4569    1.0000 </r>
       <r>    1.7074    1.0000 </r>
       <r>    1.7964    1.0000 </r>
       <r>    2.0571    1.0000 </r>
       <r>    2.9886    1.0000 </r>
       <r>    3.9490    1.0000 </r>
       <r>    3.9873    1.0000 </r>
       <r>    4.0988    1.0000 </r>
       <r>    4.1245    1.0000 </r>
       <r>    4.3948    1.0000 </r>
       <r>    5.0007    1.0000 </r>
       <r>    5.8039    1.0000 </r>
       <r>    5.9305    1.0000 </r>
       <r>    6.0816    1.0000 </r>
       <r>    6.0878    1.0000 </r>
       <r>    6.5407    0.9973 </r>
       <r>    6.8066    1.0478 </r>
       <r>    6.9108    0.9657 </r>
       <r>    8.4163    0.0000 </r>
       <r>    9.7206    0.0000 </r>
       <r>   12.6877    0.0000 </r>
      </set>
      <set comment="kpoint 24">
       <r>   -0.6081    1.0000 </r>
       <r>    1.2471    1.0000 </r>
       <r>    1.5461    1.0000 </r>
       <r>    1.7463    1.0000 </r>
       <r>    1.8654    1.0000 </r>
       <r>    2.0647    1.0000 </r>
       <r>    2.2848    1.0000 </r>
       <r>    2.8252    1.0000 </r>
       <r>    3.4484    1.0000 </r>
       <r>    3.7741    1.0000 </r>
       <r>    3.9683    1.0000 </r>
       <r>    3.9763    1.0000 </r>
       <r>    4.3259    1.0000 </r>
       <r>    4.9436    1.0000 </r>
       <r>    5.5604    1.0000 </r>
       <r>    5.7898    1.0000 </r>
       <r>    5.8124    1.0000 </r>
       <r>    6.1517    1.0000 </r>
       <r>    6.2133    1.0000 </r>
       <r>    6.7876    1.0407 </r>
       <r>    6.8438    1.0497 </r>
       <r>    7.8500    0.0000 </r>
       <r>   10.2790    0.0000 </r>
       <r>   12.2717    0.0000 </r>
      </set>
      <set comment="kpoint 25">
       <r>   -0.1548    1.0000 </r>
       <r>    1.0809    1.0000 </r>
       <r>    1.7981    1.0000 </r>
       <r>    2.0321    1.0000 </r>
       <r>    2.0432    1.0000 </r>
       <r>    2.3593    1.0000 </r>
       <r>    2.4540    1.0000 </r>
       <r>    2.6365    1.0000 </r>
       <r>    3.0143    1.0000 </r>
       <r>    3.5403    1.0000 </r>
       <r>    3.6042    1.0000 </r>
       <r>    3.8814    1.0000 </r>
       <r>    4.5702    1.0000 </r>
       <r>    5.0122    1.0000 </r>
       <r>    5.3582    1.0000 </r>
       <r>    5.4640    1.0000 </r>
       <r>    5.5465    1.0000 </r>
       <r>    5.8616    1.0000 </r>
       <r>    6.4101    0.9998 </r>
       <r>    6.7779    1.0363 </r>
       <r>    6.8043    1.0471 </r>
       <r>    7.3964    0.0041 </r>
       <r>   10.7666    0.0000 </r>
       <r>   11.8977    0.0000 </r>
      </set>
      <set comment="kpoint 26">
       <r>    0.3144    1.0000 </r>
       <r>    0.7500    1.0000 </r>
       <r>    2.0768    1.0000 </r>
       <r>    2.2218    1.0000 </r>
       <r>    2.2357    1.0000 </r>
       <r>    2.4364    1.0000 </r>
       <r>    2.5119    1.0000 </r>
       <r>    2.5327    1.0000 </r>
       <r>    2.8306    1.0000 </r>
       <r>    3.1393    1.0000 </r>
       <r>    3.6108    1.0000 </r>
       <r>    3.7327    1.0000 </r>
       <r>    4.8446    1.0000 </r>
       <r>    5.1439    1.0000 </r>
       <r>    5.2165    1.0000 </r>
       <r>    5.2717    1.0000 </r>
       <r>    5.3441    1.0000 </r>
       <r>    5.5153    1.0000 </r>
       <r>    6.6995    1.0041 </r>
       <r>    6.7761    1.0354 </r>
       <r>    6.7837    1.0389 </r>
       <r>    7.0229    0.4903 </r>
       <r>   11.1831    0.0000 </r>
       <r>   11.5481    0.0000 </r>
      </set>
      <set comment="kpoint 27">
       <r>   -0.6933    1.0000 </r>
       <r>    1.4537    1.0000 </r>
       <r>    1.5292    1.0000 </r>
       <r>    1.5292    1.0000 </r>
       <r>    1.9173    1.0000 </r>
       <r>    1.9173    1.0000 </r>
       <r>    2.2748    1.0000 </r>
       <r>    2.9287    1.0000 </r>
       <r>    3.6145    1.0000 </r>
       <r>    3.6145    1.0000 </r>
       <r>    3.9639    1.0000 </r>
       <r>    4.1267    1.0000 </r>
       <r>    4.2260    1.0000 </r>
       <r>    4.9277    1.0000 </r>
       <r>    5.6174    1.0000 </r>
       <r>    5.9136    1.0000 </r>
       <r>    5.9136    1.0000 </r>
       <r>    6.1392    1.0000 </r>
       <r>    6.4838    0.9989 </r>
       <r>    6.4838    0.9989 </r>
       <r>    6.7391    1.0181 </r>
       <r>    8.9935    0.0000 </r>
       <r>    8.9935    0.0000 </r>
       <r>   12.1377    0.0000 </r>
      </set>
      <set comment="kpoint 28">
       <r>   -0.3109    1.0000 </r>
       <r>    1.5097    1.0000 </r>
       <r>    1.6140    1.0000 </r>
       <r>    1.8273    1.0000 </r>
       <r>    2.0578    1.0000 </r>
       <r>    2.1727    1.0000 </r>
       <r>    2.4738    1.0000 </r>
       <r>    2.8260    1.0000 </r>
       <r>    3.1726    1.0000 </r>
       <r>    3.3770    1.0000 </r>
       <r>    3.8089    1.0000 </r>
       <r>    3.9085    1.0000 </r>
       <r>    4.3856    1.0000 </r>
       <r>    4.8792    1.0000 </r>
       <r>    5.4154    1.0000 </r>
       <r>    5.6613    1.0000 </r>
       <r>    5.6896    1.0000 </r>
       <r>    6.1399    1.0000 </r>
       <r>    6.4108    0.9998 </r>
       <r>    6.4527    0.9994 </r>
       <r>    6.6108    0.9951 </r>
       <r>    8.3818    0.0000 </r>
       <r>    9.5288    0.0000 </r>
       <r>   11.6454    0.0000 </r>
      </set>
      <set comment="kpoint 29">
       <r>    0.1154    1.0000 </r>
       <r>    1.3257    1.0000 </r>
       <r>    1.8222    1.0000 </r>
       <r>    2.1303    1.0000 </r>
       <r>    2.2103    1.0000 </r>
       <r>    2.4450    1.0000 </r>
       <r>    2.5980    1.0000 </r>
       <r>    2.6899    1.0000 </r>
       <r>    2.7960    1.0000 </r>
       <r>    3.3146    1.0000 </r>
       <r>    3.4688    1.0000 </r>
       <r>    3.7827    1.0000 </r>
       <r>    4.5887    1.0000 </r>
       <r>    4.9423    1.0000 </r>
       <r>    5.2491    1.0000 </r>
       <r>    5.3692    1.0000 </r>
       <r>    5.4560    1.0000 </r>
       <r>    5.7849    1.0000 </r>
       <r>    6.4413    0.9995 </r>
       <r>    6.5245    0.9978 </r>
       <r>    6.7232    1.0117 </r>
       <r>    7.8754    0.0000 </r>
       <r>   10.0107    0.0000 </r>
       <r>   11.2203    0.0000 </r>
      </set>
      <set comment="kpoint 30">
       <r>    0.5605    1.0000 </r>
       <r>    0.9849    1.0000 </r>
       <r>    2.0765    1.0000 </r>
       <r>    2.3461    1.0000 </r>
       <r>    2.3710    1.0000 </r>
       <r>    2.4309    1.0000 </r>
       <r>    2.5340    1.0000 </r>
       <r>    2.5828    1.0000 </r>
       <r>    2.8257    1.0000 </r>
       <r>    3.1339    1.0000 </r>
       <r>    3.4158    1.0000 </r>
       <r>    3.5985    1.0000 </r>
       <r>    4.8195    1.0000 </r>
       <r>    5.0804    1.0000 </r>
       <r>    5.1433    1.0000 </r>
       <r>    5.1880    1.0000 </r>
       <r>    5.2679    1.0000 </r>
       <r>    5.4408    1.0000 </r>
       <r>    6.4471    0.9995 </r>
       <r>    6.4728    0.9991 </r>
       <r>    7.0674    0.2649 </r>
       <r>    7.4463    0.0047 </r>
       <r>   10.4394    0.0000 </r>
       <r>   10.8316    0.0000 </r>
      </set>
      <set comment="kpoint 31">
       <r>    0.0400    1.0000 </r>
       <r>    1.7161    1.0000 </r>
       <r>    1.7932    1.0000 </r>
       <r>    1.7932    1.0000 </r>
       <r>    2.2937    1.0000 </r>
       <r>    2.2937    1.0000 </r>
       <r>    2.6457    1.0000 </r>
       <r>    2.7946    1.0000 </r>
       <r>    3.0277    1.0000 </r>
       <r>    3.0277    1.0000 </r>
       <r>    3.6039    1.0000 </r>
       <r>    3.8335    1.0000 </r>
       <r>    4.4841    1.0000 </r>
       <r>    4.8265    1.0000 </r>
       <r>    5.2456    1.0000 </r>
       <r>    5.4791    1.0000 </r>
       <r>    5.4791    1.0000 </r>
       <r>    6.0998    1.0000 </r>
       <r>    6.0998    1.0000 </r>
       <r>    6.4158    0.9997 </r>
       <r>    6.7312    1.0148 </r>
       <r>    8.8911    0.0000 </r>
       <r>    8.8911    0.0000 </r>
       <r>   11.1014    0.0000 </r>
      </set>
      <set comment="kpoint 32">
       <r>    0.4290    1.0000 </r>
       <r>    1.5784    1.0000 </r>
       <r>    1.8516    1.0000 </r>
       <r>    2.0434    1.0000 </r>
       <r>    2.4105    1.0000 </r>
       <r>    2.5636    1.0000 </r>
       <r>    2.7285    1.0000 </r>
       <r>    2.7492    1.0000 </r>
       <r>    2.7577    1.0000 </r>
       <r>    3.0869    1.0000 </r>
       <r>    3.3665    1.0000 </r>
       <r>    3.7046    1.0000 </r>
       <r>    4.6012    1.0000 </r>
       <r>    4.8956    1.0000 </r>
       <r>    5.0985    1.0000 </r>
       <r>    5.2207    1.0000 </r>
       <r>    5.2784    1.0000 </r>
       <r>    5.7439    1.0000 </r>
       <r>    6.0922    1.0000 </r>
       <r>    6.2694    1.0000 </r>
       <r>    7.0890    0.1713 </r>
       <r>    8.3543    0.0000 </r>
       <r>    9.3647    0.0000 </r>
       <r>   10.6352    0.0000 </r>
      </set>
      <set comment="kpoint 33">
       <r>    0.8362    1.0000 </r>
       <r>    1.2341    1.0000 </r>
       <r>    2.0096    1.0000 </r>
       <r>    2.1293    1.0000 </r>
       <r>    2.5252    1.0000 </r>
       <r>    2.6348    1.0000 </r>
       <r>    2.6630    1.0000 </r>
       <r>    2.7362    1.0000 </r>
       <r>    2.8461    1.0000 </r>
       <r>    3.1134    1.0000 </r>
       <r>    3.2791    1.0000 </r>
       <r>    3.5069    1.0000 </r>
       <r>    4.7517    1.0000 </r>
       <r>    4.9643    1.0000 </r>
       <r>    5.0423    1.0000 </r>
       <r>    5.1082    1.0000 </r>
       <r>    5.1128    1.0000 </r>
       <r>    5.4044    1.0000 </r>
       <r>    6.1147    1.0000 </r>
       <r>    6.1713    1.0000 </r>
       <r>    7.4745    0.0037 </r>
       <r>    7.8909    0.0000 </r>
       <r>    9.8013    0.0000 </r>
       <r>   10.2148    0.0000 </r>
      </set>
      <set comment="kpoint 34">
       <r>    0.7701    1.0000 </r>
       <r>    1.7874    1.0000 </r>
       <r>    1.7874    1.0000 </r>
       <r>    1.8873    1.0000 </r>
       <r>    2.6298    1.0000 </r>
       <r>    2.6298    1.0000 </r>
       <r>    2.7410    1.0000 </r>
       <r>    2.8615    1.0000 </r>
       <r>    2.9510    1.0000 </r>
       <r>    2.9510    1.0000 </r>
       <r>    3.2359    1.0000 </r>
       <r>    3.6038    1.0000 </r>
       <r>    4.5962    1.0000 </r>
       <r>    4.9488    1.0000 </r>
       <r>    4.9757    1.0000 </r>
       <r>    5.0490    1.0000 </r>
       <r>    5.0490    1.0000 </r>
       <r>    5.7497    1.0000 </r>
       <r>    5.7497    1.0000 </r>
       <r>    6.0586    1.0000 </r>
       <r>    7.4836    0.0034 </r>
       <r>    8.8160    0.0000 </r>
       <r>    8.8160    0.0000 </r>
       <r>   10.1350    0.0000 </r>
      </set>
      <set comment="kpoint 35">
       <r>    1.1214    1.0000 </r>
       <r>    1.4667    1.0000 </r>
       <r>    1.8999    1.0000 </r>
       <r>    1.9162    1.0000 </r>
       <r>    2.6834    1.0000 </r>
       <r>    2.7242    1.0000 </r>
       <r>    2.8187    1.0000 </r>
       <r>    2.8882    1.0000 </r>
       <r>    2.9480    1.0000 </r>
       <r>    3.0856    1.0000 </r>
       <r>    3.2029    1.0000 </r>
       <r>    3.4350    1.0000 </r>
       <r>    4.6592    1.0000 </r>
       <r>    4.8233    1.0000 </r>
       <r>    4.8707    1.0000 </r>
       <r>    4.9119    1.0000 </r>
       <r>    5.1677    1.0000 </r>
       <r>    5.4340    1.0000 </r>
       <r>    5.8011    1.0000 </r>
       <r>    5.9024    1.0000 </r>
       <r>    7.8980    0.0000 </r>
       <r>    8.3364    0.0000 </r>
       <r>    9.2569    0.0000 </r>
       <r>    9.6877    0.0000 </r>
      </set>
      <set comment="kpoint 36">
       <r>    1.3985    1.0000 </r>
       <r>    1.6579    1.0000 </r>
       <r>    1.6579    1.0000 </r>
       <r>    1.8033    1.0000 </r>
       <r>    2.7894    1.0000 </r>
       <r>    2.8234    1.0000 </r>
       <r>    2.8234    1.0000 </r>
       <r>    2.9169    1.0000 </r>
       <r>    3.1119    1.0000 </r>
       <r>    3.1628    1.0000 </r>
       <r>    3.1628    1.0000 </r>
       <r>    3.3329    1.0000 </r>
       <r>    4.6335    1.0000 </r>
       <r>    4.7283    1.0000 </r>
       <r>    4.7283    1.0000 </r>
       <r>    4.7438    1.0000 </r>
       <r>    5.3117    1.0000 </r>
       <r>    5.5272    1.0000 </r>
       <r>    5.5272    1.0000 </r>
       <r>    5.6841    1.0000 </r>
       <r>    8.3302    0.0000 </r>
       <r>    8.7766    0.0000 </r>
       <r>    8.7766    0.0000 </r>
       <r>    9.2195    0.0000 </r>
      </set>
      <set comment="kpoint 37">
       <r>   -2.1853    1.0000 </r>
       <r>    0.7604    1.0000 </r>
       <r>    0.7604    1.0000 </r>
       <r>    0.7604    1.0000 </r>
       <r>    1.1674    1.0000 </r>
       <r>    1.1674    1.0000 </r>
       <r>    1.1674    1.0000 </r>
       <r>    3.4352    1.0000 </r>
       <r>    3.6902    1.0000 </r>
       <r>    3.6902    1.0000 </r>
       <r>    5.4757    1.0000 </r>
       <r>    5.4757    1.0000 </r>
       <r>    6.2470    1.0000 </r>
       <r>    6.2470    1.0000 </r>
       <r>    6.2470    1.0000 </r>
       <r>    6.6957    1.0032 </r>
       <r>    6.6957    1.0032 </r>
       <r>    6.6957    1.0032 </r>
       <r>    7.3297   -0.0080 </r>
       <r>    7.3297   -0.0080 </r>
       <r>    7.3297   -0.0080 </r>
       <r>    9.6231    0.0000 </r>
       <r>    9.6231    0.0000 </r>
       <r>    9.6231    0.0000 </r>
      </set>
      <set comment="kpoint 38">
       <r>   -1.9947    1.0000 </r>
       <r>    0.8259    1.0000 </r>
       <r>    0.8815    1.0000 </r>
       <r>    0.8815    1.0000 </r>
       <r>    1.2449    1.0000 </r>
       <r>    1.2997    1.0000 </r>
       <r>    1.2997    1.0000 </r>
       <r>    3.3499    1.0000 </r>
       <r>    3.7591    1.0000 </r>
       <r>    3.7711    1.0000 </r>
       <r>    5.3578    1.0000 </r>
       <r>    5.5438    1.0000 </r>
       <r>    5.7221    1.0000 </r>
       <r>    5.7221    1.0000 </r>
       <r>    5.8940    1.0000 </r>
       <r>    6.5152    0.9981 </r>
       <r>    6.5291    0.9977 </r>
       <r>    6.5291    0.9977 </r>
       <r>    7.2509   -0.0423 </r>
       <r>    7.2998   -0.0195 </r>
       <r>    7.2998   -0.0195 </r>
       <r>    8.8858    0.0000 </r>
       <r>   10.2480    0.0000 </r>
       <r>   10.2480    0.0000 </r>
      </set>
      <set comment="kpoint 39">
       <r>   -1.7147    1.0000 </r>
       <r>    0.9029    1.0000 </r>
       <r>    1.0569    1.0000 </r>
       <r>    1.0569    1.0000 </r>
       <r>    1.3589    1.0000 </r>
       <r>    1.4924    1.0000 </r>
       <r>    1.4924    1.0000 </r>
       <r>    3.2053    1.0000 </r>
       <r>    3.8800    1.0000 </r>
       <r>    3.8919    1.0000 </r>
       <r>    5.1354    1.0000 </r>
       <r>    5.1354    1.0000 </r>
       <r>    5.2006    1.0000 </r>
       <r>    5.4215    1.0000 </r>
       <r>    5.6432    1.0000 </r>
       <r>    6.2692    1.0000 </r>
       <r>    6.3145    1.0000 </r>
       <r>    6.3145    1.0000 </r>
       <r>    7.1378    0.0197 </r>
       <r>    7.2637   -0.0366 </r>
       <r>    7.2637   -0.0366 </r>
       <r>    8.1212    0.0000 </r>
       <r>   10.9365    0.0000 </r>
       <r>   10.9365    0.0000 </r>
      </set>
      <set comment="kpoint 40">
       <r>   -1.3533    1.0000 </r>
       <r>    0.9593    1.0000 </r>
       <r>    1.2791    1.0000 </r>
       <r>    1.2791    1.0000 </r>
       <r>    1.5065    1.0000 </r>
       <r>    1.7350    1.0000 </r>
       <r>    1.7350    1.0000 </r>
       <r>    3.0181    1.0000 </r>
       <r>    4.0246    1.0000 </r>
       <r>    4.0519    1.0000 </r>
       <r>    4.5536    1.0000 </r>
       <r>    4.5536    1.0000 </r>
       <r>    4.9004    1.0000 </r>
       <r>    5.0397    1.0000 </r>
       <r>    5.7706    1.0000 </r>
       <r>    5.9795    1.0000 </r>
       <r>    6.0410    1.0000 </r>
       <r>    6.0410    1.0000 </r>
       <r>    6.9956    0.6330 </r>
       <r>    7.2353   -0.0479 </r>
       <r>    7.2353   -0.0479 </r>
       <r>    7.4121    0.0048 </r>
       <r>   11.6147    0.0000 </r>
       <r>   11.6147    0.0000 </r>
      </set>
      <set comment="kpoint 41">
       <r>   -0.9238    1.0000 </r>
       <r>    0.9428    1.0000 </r>
       <r>    1.5354    1.0000 </r>
       <r>    1.5354    1.0000 </r>
       <r>    1.6831    1.0000 </r>
       <r>    2.0092    1.0000 </r>
       <r>    2.0092    1.0000 </r>
       <r>    2.8025    1.0000 </r>
       <r>    4.0037    1.0000 </r>
       <r>    4.0037    1.0000 </r>
       <r>    4.1282    1.0000 </r>
       <r>    4.2496    1.0000 </r>
       <r>    4.4270    1.0000 </r>
       <r>    4.9572    1.0000 </r>
       <r>    5.6667    1.0000 </r>
       <r>    5.7390    1.0000 </r>
       <r>    5.7390    1.0000 </r>
       <r>    5.9217    1.0000 </r>
       <r>    6.7814    1.0379 </r>
       <r>    6.8310    1.0516 </r>
       <r>    7.2168   -0.0515 </r>
       <r>    7.2168   -0.0515 </r>
       <r>   12.2153    0.0000 </r>
       <r>   12.2153    0.0000 </r>
      </set>
      <set comment="kpoint 42">
       <r>   -0.4481    1.0000 </r>
       <r>    0.7903    1.0000 </r>
       <r>    1.7958    1.0000 </r>
       <r>    1.7958    1.0000 </r>
       <r>    1.8837    1.0000 </r>
       <r>    2.2903    1.0000 </r>
       <r>    2.2903    1.0000 </r>
       <r>    2.5711    1.0000 </r>
       <r>    3.5067    1.0000 </r>
       <r>    3.5067    1.0000 </r>
       <r>    4.1025    1.0000 </r>
       <r>    4.1053    1.0000 </r>
       <r>    4.4827    1.0000 </r>
       <r>    5.0663    1.0000 </r>
       <r>    5.3485    1.0000 </r>
       <r>    5.4654    1.0000 </r>
       <r>    5.4654    1.0000 </r>
       <r>    6.0915    1.0000 </r>
       <r>    6.2286    1.0000 </r>
       <r>    6.6510    0.9962 </r>
       <r>    7.2061   -0.0512 </r>
       <r>    7.2061   -0.0512 </r>
       <r>   12.6532    0.0000 </r>
       <r>   12.6532    0.0000 </r>
      </set>
      <set comment="kpoint 43">
       <r>    0.0373    1.0000 </r>
       <r>    0.4743    1.0000 </r>
       <r>    1.9825    1.0000 </r>
       <r>    1.9825    1.0000 </r>
       <r>    2.1030    1.0000 </r>
       <r>    2.3347    1.0000 </r>
       <r>    2.5493    1.0000 </r>
       <r>    2.5493    1.0000 </r>
       <r>    3.1111    1.0000 </r>
       <r>    3.1111    1.0000 </r>
       <r>    3.9771    1.0000 </r>
       <r>    4.0114    1.0000 </r>
       <r>    4.7474    1.0000 </r>
       <r>    5.0386    1.0000 </r>
       <r>    5.2960    1.0000 </r>
       <r>    5.2960    1.0000 </r>
       <r>    5.3541    1.0000 </r>
       <r>    5.7510    1.0000 </r>
       <r>    6.2740    1.0000 </r>
       <r>    6.4629    0.9993 </r>
       <r>    7.2013   -0.0504 </r>
       <r>    7.2013   -0.0504 </r>
       <r>   12.8648    0.0000 </r>
       <r>   12.8648    0.0000 </r>
      </set>
      <set comment="kpoint 44">
       <r>   -1.8104    1.0000 </r>
       <r>    0.9462    1.0000 </r>
       <r>    0.9462    1.0000 </r>
       <r>    0.9709    1.0000 </r>
       <r>    1.3766    1.0000 </r>
       <r>    1.3766    1.0000 </r>
       <r>    1.4484    1.0000 </r>
       <r>    3.2997    1.0000 </r>
       <r>    3.8048    1.0000 </r>
       <r>    3.8257    1.0000 </r>
       <r>    5.3413    1.0000 </r>
       <r>    5.3851    1.0000 </r>
       <r>    5.3851    1.0000 </r>
       <r>    5.3959    1.0000 </r>
       <r>    5.5393    1.0000 </r>
       <r>    6.3162    1.0000 </r>
       <r>    6.3570    0.9999 </r>
       <r>    6.3570    0.9999 </r>
       <r>    7.2357   -0.0478 </r>
       <r>    7.2357   -0.0478 </r>
       <r>    7.2485   -0.0433 </r>
       <r>    9.4709    0.0000 </r>
       <r>    9.4709    0.0000 </r>
       <r>   10.7680    0.0000 </r>
      </set>
      <set comment="kpoint 45">
       <r>   -1.5396    1.0000 </r>
       <r>    1.0216    1.0000 </r>
       <r>    1.1096    1.0000 </r>
       <r>    1.1201    1.0000 </r>
       <r>    1.4898    1.0000 </r>
       <r>    1.5685    1.0000 </r>
       <r>    1.6541    1.0000 </r>
       <r>    3.1908    1.0000 </r>
       <r>    3.8995    1.0000 </r>
       <r>    3.9120    1.0000 </r>
       <r>    4.8220    1.0000 </r>
       <r>    4.9468    1.0000 </r>
       <r>    4.9565    1.0000 </r>
       <r>    5.2298    1.0000 </r>
       <r>    5.6372    1.0000 </r>
       <r>    6.1069    1.0000 </r>
       <r>    6.1119    1.0000 </r>
       <r>    6.1916    1.0000 </r>
       <r>    7.1331    0.0303 </r>
       <r>    7.1769   -0.0379 </r>
       <r>    7.1807   -0.0409 </r>
       <r>    8.6687    0.0000 </r>
       <r>   10.1074    0.0000 </r>
       <r>   11.3780    0.0000 </r>
      </set>
      <set comment="kpoint 46">
       <r>   -1.1903    1.0000 </r>
       <r>    1.0759    1.0000 </r>
       <r>    1.2976    1.0000 </r>
       <r>    1.3410    1.0000 </r>
       <r>    1.6353    1.0000 </r>
       <r>    1.8091    1.0000 </r>
       <r>    1.8966    1.0000 </r>
       <r>    3.0323    1.0000 </r>
       <r>    3.9980    1.0000 </r>
       <r>    4.0476    1.0000 </r>
       <r>    4.2723    1.0000 </r>
       <r>    4.4536    1.0000 </r>
       <r>    4.5015    1.0000 </r>
       <r>    5.1098    1.0000 </r>
       <r>    5.7879    1.0000 </r>
       <r>    5.8237    1.0000 </r>
       <r>    5.8749    1.0000 </r>
       <r>    5.9762    1.0000 </r>
       <r>    6.9780    0.7202 </r>
       <r>    7.1153    0.0783 </r>
       <r>    7.1160    0.0761 </r>
       <r>    7.9310    0.0000 </r>
       <r>   10.7300    0.0000 </r>
       <r>   11.9924    0.0000 </r>
      </set>
      <set comment="kpoint 47">
       <r>   -0.7753    1.0000 </r>
       <r>    1.0566    1.0000 </r>
       <r>    1.5312    1.0000 </r>
       <r>    1.5990    1.0000 </r>
       <r>    1.8063    1.0000 </r>
       <r>    2.0741    1.0000 </r>
       <r>    2.1444    1.0000 </r>
       <r>    2.8410    1.0000 </r>
       <r>    3.7657    1.0000 </r>
       <r>    3.9689    1.0000 </r>
       <r>    4.0411    1.0000 </r>
       <r>    4.1045    1.0000 </r>
       <r>    4.2227    1.0000 </r>
       <r>    5.0778    1.0000 </r>
       <r>    5.5187    1.0000 </r>
       <r>    5.6221    1.0000 </r>
       <r>    5.7207    1.0000 </r>
       <r>    5.9703    1.0000 </r>
       <r>    6.7366    1.0171 </r>
       <r>    7.0670    0.2670 </r>
       <r>    7.0680    0.2622 </r>
       <r>    7.3224   -0.0105 </r>
       <r>   11.2971    0.0000 </r>
       <r>   12.4949    0.0000 </r>
      </set>
      <set comment="kpoint 48">
       <r>   -0.3153    1.0000 </r>
       <r>    0.9009    1.0000 </r>
       <r>    1.7980    1.0000 </r>
       <r>    1.8732    1.0000 </r>
       <r>    1.9963    1.0000 </r>
       <r>    2.3151    1.0000 </r>
       <r>    2.3452    1.0000 </r>
       <r>    2.6311    1.0000 </r>
       <r>    3.3401    1.0000 </r>
       <r>    3.5329    1.0000 </r>
       <r>    3.8545    1.0000 </r>
       <r>    3.9800    1.0000 </r>
       <r>    4.4279    1.0000 </r>
       <r>    5.2159    1.0000 </r>
       <r>    5.2171    1.0000 </r>
       <r>    5.3935    1.0000 </r>
       <r>    5.4697    1.0000 </r>
       <r>    6.1751    1.0000 </r>
       <r>    6.3559    0.9999 </r>
       <r>    6.9113    0.9644 </r>
       <r>    7.0365    0.4189 </r>
       <r>    7.0380    0.4112 </r>
       <r>   11.7786    0.0000 </r>
       <r>   12.6378    0.0000 </r>
      </set>
      <set comment="kpoint 49">
       <r>    0.1562    1.0000 </r>
       <r>    0.5853    1.0000 </r>
       <r>    2.0493    1.0000 </r>
       <r>    2.0919    1.0000 </r>
       <r>    2.2006    1.0000 </r>
       <r>    2.4145    1.0000 </r>
       <r>    2.4330    1.0000 </r>
       <r>    2.4346    1.0000 </r>
       <r>    3.1063    1.0000 </r>
       <r>    3.2054    1.0000 </r>
       <r>    3.7896    1.0000 </r>
       <r>    3.8623    1.0000 </r>
       <r>    4.6636    1.0000 </r>
       <r>    4.9280    1.0000 </r>
       <r>    5.2641    1.0000 </r>
       <r>    5.2939    1.0000 </r>
       <r>    5.5132    1.0000 </r>
       <r>    5.9113    1.0000 </r>
       <r>    6.3963    0.9998 </r>
       <r>    6.6339    0.9953 </r>
       <r>    7.0227    0.4916 </r>
       <r>    7.0234    0.4881 </r>
       <r>   12.1625    0.0000 </r>
       <r>   12.4564    0.0000 </r>
      </set>
      <set comment="kpoint 50">
       <r>   -1.2827    1.0000 </r>
       <r>    1.1923    1.0000 </r>
       <r>    1.1923    1.0000 </r>
       <r>    1.2070    1.0000 </r>
       <r>    1.6814    1.0000 </r>
       <r>    1.6814    1.0000 </r>
       <r>    1.8641    1.0000 </r>
       <r>    3.1354    1.0000 </r>
       <r>    3.9444    1.0000 </r>
       <r>    3.9608    1.0000 </r>
       <r>    4.4414    1.0000 </r>
       <r>    4.4414    1.0000 </r>
       <r>    4.6541    1.0000 </r>
       <r>    5.1927    1.0000 </r>
       <r>    5.7212    1.0000 </r>
       <r>    5.8870    1.0000 </r>
       <r>    5.9796    1.0000 </r>
       <r>    5.9796    1.0000 </r>
       <r>    7.0563    0.3181 </r>
       <r>    7.0563    0.3181 </r>
       <r>    7.0817    0.2013 </r>
       <r>    9.2698    0.0000 </r>
       <r>    9.2698    0.0000 </r>
       <r>   11.9119    0.0000 </r>
      </set>
      <set comment="kpoint 51">
       <r>   -0.9520    1.0000 </r>
       <r>    1.2410    1.0000 </r>
       <r>    1.3533    1.0000 </r>
       <r>    1.4079    1.0000 </r>
       <r>    1.8258    1.0000 </r>
       <r>    1.9217    1.0000 </r>
       <r>    2.0969    1.0000 </r>
       <r>    3.0297    1.0000 </r>
       <r>    3.9421    1.0000 </r>
       <r>    3.9759    1.0000 </r>
       <r>    4.0561    1.0000 </r>
       <r>    4.0695    1.0000 </r>
       <r>    4.2895    1.0000 </r>
       <r>    5.1226    1.0000 </r>
       <r>    5.6712    1.0000 </r>
       <r>    5.7076    1.0000 </r>
       <r>    5.8184    1.0000 </r>
       <r>    5.8942    1.0000 </r>
       <r>    6.8822    1.0195 </r>
[...]
       <r>    7.6347    0.0002 </r>
       <r>    8.1689    0.0000 </r>
       <r>    8.1689    0.0000 </r>
       <r>    8.6119    0.0000 </r>
      </set>
      <set comment="kpoint 117">
       <r>    0.2719    1.0000 </r>
       <r>    0.5477    1.0000 </r>
       <r>    0.5477    1.0000 </r>
       <r>    0.5477    1.0000 </r>
       <r>    3.3243    1.0000 </r>
       <r>    3.3243    1.0000 </r>
       <r>    3.3243    1.0000 </r>
       <r>    3.6012    1.0000 </r>
       <r>    3.6012    1.0000 </r>
       <r>    3.7485    1.0000 </r>
       <r>    3.7485    1.0000 </r>
       <r>    3.7485    1.0000 </r>
       <r>    5.2743    1.0000 </r>
       <r>    5.2743    1.0000 </r>
       <r>    5.2743    1.0000 </r>
       <r>    5.5040    1.0000 </r>
       <r>    6.7733    1.0341 </r>
       <r>    6.7733    1.0341 </r>
       <r>    7.0739    0.2353 </r>
       <r>    7.0739    0.2353 </r>
       <r>    7.0739    0.2353 </r>
       <r>    8.5350    0.0000 </r>
       <r>    8.5350    0.0000 </r>
       <r>    8.5350    0.0000 </r>
      </set>
      <set comment="kpoint 118">
       <r>    0.3134    1.0000 </r>
       <r>    0.4058    1.0000 </r>
       <r>    0.4937    1.0000 </r>
       <r>    0.4937    1.0000 </r>
       <r>    3.3611    1.0000 </r>
       <r>    3.3611    1.0000 </r>
       <r>    3.4461    1.0000 </r>
       <r>    3.5402    1.0000 </r>
       <r>    3.5995    1.0000 </r>
       <r>    3.6492    1.0000 </r>
       <r>    3.6858    1.0000 </r>
       <r>    3.6858    1.0000 </r>
       <r>    5.5555    1.0000 </r>
       <r>    5.5555    1.0000 </r>
       <r>    5.5626    1.0000 </r>
       <r>    5.7202    1.0000 </r>
       <r>    6.9489    0.8458 </r>
       <r>    7.0310    0.4476 </r>
       <r>    7.0310    0.4476 </r>
       <r>    7.0428    0.3862 </r>
       <r>    7.0514    0.3424 </r>
       <r>    7.7171    0.0000 </r>
       <r>    8.5043    0.0000 </r>
       <r>    8.5043    0.0000 </r>
      </set>
      <set comment="kpoint 119">
       <r>    0.3182    1.0000 </r>
       <r>    0.3786    1.0000 </r>
       <r>    0.3786    1.0000 </r>
       <r>    0.4080    1.0000 </r>
       <r>    3.4300    1.0000 </r>
       <r>    3.4586    1.0000 </r>
       <r>    3.4586    1.0000 </r>
       <r>    3.5264    1.0000 </r>
       <r>    3.5622    1.0000 </r>
       <r>    3.5982    1.0000 </r>
       <r>    3.5982    1.0000 </r>
       <r>    3.6104    1.0000 </r>
       <r>    5.8846    1.0000 </r>
       <r>    5.9109    1.0000 </r>
       <r>    5.9109    1.0000 </r>
       <r>    6.0628    1.0000 </r>
       <r>    6.9057    0.9776 </r>
       <r>    7.0060    0.5796 </r>
       <r>    7.0060    0.5796 </r>
       <r>    7.0092    0.5626 </r>
       <r>    7.3103   -0.0151 </r>
       <r>    7.8348    0.0000 </r>
       <r>    7.8348    0.0000 </r>
       <r>    8.1243    0.0000 </r>
      </set>
      <set comment="kpoint 120">
       <r>    0.2894    1.0000 </r>
       <r>    0.3194    1.0000 </r>
       <r>    0.3194    1.0000 </r>
       <r>    0.3194    1.0000 </r>
       <r>    3.4938    1.0000 </r>
       <r>    3.4938    1.0000 </r>
       <r>    3.4938    1.0000 </r>
       <r>    3.5265    1.0000 </r>
       <r>    3.5265    1.0000 </r>
       <r>    3.5428    1.0000 </r>
       <r>    3.5428    1.0000 </r>
       <r>    3.5428    1.0000 </r>
       <r>    6.3769    0.9999 </r>
       <r>    6.3769    0.9999 </r>
       <r>    6.3769    0.9999 </r>
       <r>    6.6475    0.9960 </r>
       <r>    7.0222    0.4941 </r>
       <r>    7.0222    0.4941 </r>
       <r>    7.0576    0.3120 </r>
       <r>    7.0576    0.3120 </r>
       <r>    7.0576    0.3120 </r>
       <r>    7.5158    0.0022 </r>
       <r>    7.5158    0.0022 </r>
       <r>    7.5158    0.0022 </r>
      </set>
     </set>
    </set>
   </array>
  </eigenvalues>
  <separator name="orbital magnetization" >
   <v name="MAGDIPOLOUT">      0.00000000      0.00000000      0.00000000</v>
  </separator>
  <dos>
   <i name="efermi">      7.02110418 </i>
   <total>
    <array>
     <dimension dim="1">gridpoints</dimension>
     <dimension dim="2">spin</dimension>
     <field>energy</field>
     <field>total</field>
     <field>integrated</field>
     <set>
      <set comment="spin 1">
       <r>    -4.4788     0.0000     0.0000 </r>
       <r>    -4.4118     0.0000     0.0000 </r>
       <r>    -4.3449     0.0000     0.0000 </r>
       <r>    -4.2779     0.0000     0.0000 </r>
       <r>    -4.2110     0.0000     0.0000 </r>
       <r>    -4.1440     0.0000     0.0000 </r>
       <r>    -4.0771     0.0000     0.0000 </r>
       <r>    -4.0101     0.0000     0.0000 </r>
       <r>    -3.9432     0.0000     0.0000 </r>
       <r>    -3.8762     0.0000     0.0000 </r>
       <r>    -3.8092     0.0000     0.0000 </r>
       <r>    -3.7423     0.0000     0.0000 </r>
       <r>    -3.6753     0.0000     0.0000 </r>
       <r>    -3.6084     0.0000     0.0000 </r>
       <r>    -3.5414     0.0000     0.0000 </r>
       <r>    -3.4745     0.0000     0.0000 </r>
       <r>    -3.4075     0.0000     0.0000 </r>
       <r>    -3.3405     0.0000     0.0000 </r>
       <r>    -3.2736     0.0000     0.0000 </r>
       <r>    -3.2066     0.0000     0.0000 </r>
       <r>    -3.1397     0.0000     0.0000 </r>
       <r>    -3.0727     0.0000     0.0000 </r>
       <r>    -3.0058     0.0001     0.0000 </r>
       <r>    -2.9388     0.0002     0.0000 </r>
       <r>    -2.8719     0.0004     0.0001 </r>
       <r>    -2.8049     0.0002     0.0001 </r>
       <r>    -2.7379    -0.0013    -0.0000 </r>
       <r>    -2.6710    -0.0036    -0.0003 </r>
       <r>    -2.6040    -0.0027    -0.0004 </r>
       <r>    -2.5371     0.0088     0.0001 </r>
       <r>    -2.4701     0.0348     0.0025 </r>
       <r>    -2.4032     0.0695     0.0071 </r>
       <r>    -2.3362     0.1015     0.0139 </r>
       <r>    -2.2693     0.1278     0.0225 </r>
       <r>    -2.2023     0.1542     0.0328 </r>
       <r>    -2.1353     0.1778     0.0447 </r>
       <r>    -2.0684     0.1871     0.0572 </r>
       <r>    -2.0014     0.1879     0.0698 </r>
       <r>    -1.9345     0.2064     0.0836 </r>
       <r>    -1.8675     0.2472     0.1002 </r>
       <r>    -1.8006     0.2747     0.1186 </r>
       <r>    -1.7336     0.2667     0.1364 </r>
       <r>    -1.6667     0.2530     0.1534 </r>
       <r>    -1.5997     0.2684     0.1713 </r>
       <r>    -1.5327     0.3043     0.1917 </r>
       <r>    -1.4658     0.3364     0.2142 </r>
       <r>    -1.3988     0.3617     0.2385 </r>
       <r>    -1.3319     0.3783     0.2638 </r>
       <r>    -1.2649     0.3697     0.2885 </r>
       <r>    -1.1980     0.3392     0.3112 </r>
       <r>    -1.1310     0.3342     0.3336 </r>
       <r>    -1.0640     0.3948     0.3601 </r>
       <r>    -0.9971     0.4869     0.3927 </r>
       <r>    -0.9301     0.5320     0.4283 </r>
       <r>    -0.8632     0.4992     0.4617 </r>
       <r>    -0.7962     0.4340     0.4908 </r>
       <r>    -0.7293     0.4132     0.5184 </r>
       <r>    -0.6623     0.4791     0.5505 </r>
       <r>    -0.5954     0.5848     0.5897 </r>
       <r>    -0.5284     0.6360     0.6322 </r>
       <r>    -0.4614     0.6150     0.6734 </r>
       <r>    -0.3945     0.6021     0.7137 </r>
       <r>    -0.3275     0.6483     0.7571 </r>
       <r>    -0.2606     0.7064     0.8044 </r>
       <r>    -0.1936     0.7194     0.8526 </r>
       <r>    -0.1267     0.7067     0.8999 </r>
       <r>    -0.0597     0.7411     0.9495 </r>
       <r>     0.0072     0.8640     1.0074 </r>
       <r>     0.0742     1.0155     1.0754 </r>
       <r>     0.1412     1.0957     1.1488 </r>
       <r>     0.2081     1.1561     1.2262 </r>
       <r>     0.2751     1.3959     1.3196 </r>
       <r>     0.3420     1.8512     1.4436 </r>
       <r>     0.4090     2.2635     1.5951 </r>
       <r>     0.4759     2.4043     1.7561 </r>
       <r>     0.5429     2.3770     1.9153 </r>
       <r>     0.6098     2.4746     2.0810 </r>
       <r>     0.6768     2.8419     2.2712 </r>
       <r>     0.7438     3.3472     2.4954 </r>
       <r>     0.8107     3.7505     2.7465 </r>
       <r>     0.8777     3.9863     3.0134 </r>
       <r>     0.9446     4.2333     3.2968 </r>
       <r>     1.0116     4.6257     3.6065 </r>
       <r>     1.0785     5.0672     3.9458 </r>
       <r>     1.1455     5.4722     4.3122 </r>
       <r>     1.2125     5.8726     4.7054 </r>
       <r>     1.2794     6.1588     5.1178 </r>
       <r>     1.3464     6.1582     5.5301 </r>
       <r>     1.4133     5.9973     5.9317 </r>
       <r>     1.4803     5.9224     6.3282 </r>
       <r>     1.5472     5.8641     6.7208 </r>
       <r>     1.6142     5.6346     7.0981 </r>
       <r>     1.6811     5.3792     7.4583 </r>
       <r>     1.7481     5.3618     7.8173 </r>
       <r>     1.8151     5.4745     8.1838 </r>
       <r>     1.8820     5.4117     8.5462 </r>
       <r>     1.9490     5.1473     8.8908 </r>
       <r>     2.0159     4.8263     9.2140 </r>
       <r>     2.0829     4.4222     9.5101 </r>
       <r>     2.1498     3.9361     9.7736 </r>
       <r>     2.2168     3.6886    10.0206 </r>
       <r>     2.2837     3.9620    10.2859 </r>
       <r>     2.3507     4.5580    10.5910 </r>
       <r>     2.4177     5.0694    10.9305 </r>
       <r>     2.4846     5.3638    11.2896 </r>
       <r>     2.5516     5.5506    11.6612 </r>
       <r>     2.6185     5.7219    12.0444 </r>
       <r>     2.6855     5.8855    12.4384 </r>
       <r>     2.7524     5.9909    12.8396 </r>
       <r>     2.8194     5.9839    13.2402 </r>
       <r>     2.8863     5.9075    13.6358 </r>
       <r>     2.9533     5.9172    14.0320 </r>
       <r>     3.0203     6.1426    14.4432 </r>
       <r>     3.0872     6.5063    14.8789 </r>
       <r>     3.1542     6.7331    15.3297 </r>
       <r>     3.2211     6.6622    15.7758 </r>
       <r>     3.2881     6.4758    16.2094 </r>
       <r>     3.3550     6.4600    16.6419 </r>
       <r>     3.4220     6.7223    17.0920 </r>
       <r>     3.4890     7.2448    17.5771 </r>
       <r>     3.5559     7.8775    18.1045 </r>
       <r>     3.6229     8.2957    18.6599 </r>
       <r>     3.6898     8.3947    19.2220 </r>
       <r>     3.7568     8.5885    19.7971 </r>
       <r>     3.8237     9.2728    20.4179 </r>
       <r>     3.8907    10.1494    21.0975 </r>
       <r>     3.9576    10.4675    21.7984 </r>
       <r>     4.0246     9.8354    22.4569 </r>
       <r>     4.0916     8.5306    23.0281 </r>
       <r>     4.1585     7.1309    23.5055 </r>
       <r>     4.2255     6.0781    23.9125 </r>
       <r>     4.2924     5.4909    24.2802 </r>
       <r>     4.3594     5.2149    24.6293 </r>
       <r>     4.4263     5.0761    24.9692 </r>
       <r>     4.4933     5.0512    25.3074 </r>
       <r>     4.5602     5.1165    25.6500 </r>
       <r>     4.6272     5.0967    25.9912 </r>
       <r>     4.6942     4.8901    26.3187 </r>
       <r>     4.7611     4.7209    26.6348 </r>
       <r>     4.8281     4.8586    26.9601 </r>
       <r>     4.8950     5.1987    27.3081 </r>
       <r>     4.9620     5.4770    27.6749 </r>
       <r>     5.0289     5.7413    28.0593 </r>
       <r>     5.0959     6.1897    28.4737 </r>
       <r>     5.1628     6.7094    28.9230 </r>
       <r>     5.2298     6.9676    29.3895 </r>
       <r>     5.2968     6.8506    29.8482 </r>
       <r>     5.3637     6.5691    30.2880 </r>
       <r>     5.4307     6.3524    30.7133 </r>
       <r>     5.4976     6.1378    31.1243 </r>
       <r>     5.5646     5.7092    31.5066 </r>
       <r>     5.6315     5.1579    31.8519 </r>
       <r>     5.6985     4.9086    32.1806 </r>
       <r>     5.7655     5.1412    32.5248 </r>
       <r>     5.8324     5.4660    32.8908 </r>
       <r>     5.8994     5.3755    33.2507 </r>
       <r>     5.9663     4.8940    33.5784 </r>
       <r>     6.0333     4.5494    33.8830 </r>
       <r>     6.1002     4.6510    34.1944 </r>
       <r>     6.1672     4.9205    34.5239 </r>
       <r>     6.2341     5.0170    34.8598 </r>
       <r>     6.3011     5.0000    35.1946 </r>
       <r>     6.3681     5.0358    35.5317 </r>
       <r>     6.4350     5.0773    35.8717 </r>
       <r>     6.5020     5.0760    36.2116 </r>
       <r>     6.5689     5.1845    36.5587 </r>
       <r>     6.6359     5.5664    36.9314 </r>
       <r>     6.7028     6.2209    37.3479 </r>
       <r>     6.7698     7.0520    37.8201 </r>
       <r>     6.8367     7.9247    38.3507 </r>
       <r>     6.9037     8.6718    38.9313 </r>
       <r>     6.9707     9.1191    39.5419 </r>
       <r>     7.0376     9.0121    40.1453 </r>
       <r>     7.1046     8.1088    40.6883 </r>
       <r>     7.1715     6.6360    41.1326 </r>
       <r>     7.2385     5.3269    41.4892 </r>
       <r>     7.3054     4.6269    41.7990 </r>
       <r>     7.3724     4.1848    42.0792 </r>
       <r>     7.4393     3.4074    42.3074 </r>
       <r>     7.5063     2.2101    42.4554 </r>
       <r>     7.5733     1.0428    42.5252 </r>
       <r>     7.6402     0.4212    42.5534 </r>
       <r>     7.7072     0.5626    42.5910 </r>
       <r>     7.7741     1.2644    42.6757 </r>
       <r>     7.8411     1.9507    42.8063 </r>
       <r>     7.9080     2.0342    42.9425 </r>
       <r>     7.9750     1.4543    43.0399 </r>
       <r>     8.0420     0.7296    43.0887 </r>
       <r>     8.1089     0.3927    43.1150 </r>
       <r>     8.1759     0.5472    43.1517 </r>
       <r>     8.2428     0.9677    43.2165 </r>
       <r>     8.3098     1.3742    43.3085 </r>
       <r>     8.3767     1.5665    43.4134 </r>
       <r>     8.4437     1.4910    43.5132 </r>
       <r>     8.5106     1.2655    43.5979 </r>
       <r>     8.5776     1.0830    43.6704 </r>
       <r>     8.6446     1.0570    43.7412 </r>
       <r>     8.7115     1.1469    43.8180 </r>
       <r>     8.7785     1.2114    43.8991 </r>
       <r>     8.8454     1.1396    43.9754 </r>
       <r>     8.9124     0.9623    44.0399 </r>
       <r>     8.9793     0.8458    44.0965 </r>
       <r>     9.0463     0.9436    44.1597 </r>
       <r>     9.1132     1.2302    44.2420 </r>
       <r>     9.1802     1.4841    44.3414 </r>
       <r>     9.2472     1.4721    44.4400 </r>
       <r>     9.3141     1.1984    44.5202 </r>
       <r>     9.3811     0.9352    44.5828 </r>
       <r>     9.4480     0.9214    44.6445 </r>
       <r>     9.5150     1.0914    44.7176 </r>
       <r>     9.5819     1.2175    44.7991 </r>
       <r>     9.6489     1.2142    44.8804 </r>
       <r>     9.7158     1.1610    44.9582 </r>
       <r>     9.7828     1.1396    45.0345 </r>
       <r>     9.8498     1.1567    45.1119 </r>
       <r>     9.9167     1.1442    45.1885 </r>
       <r>     9.9837     1.0379    45.2580 </r>
       <r>    10.0506     0.9097    45.3189 </r>
       <r>    10.1176     0.9088    45.3798 </r>
       <r>    10.1845     1.0365    45.4492 </r>
       <r>    10.2515     1.1477    45.5260 </r>
       <r>    10.3185     1.1844    45.6053 </r>
       <r>    10.3854     1.2090    45.6863 </r>
       <r>    10.4524     1.2058    45.7670 </r>
       <r>    10.5193     1.0843    45.8396 </r>
       <r>    10.5863     0.9002    45.8999 </r>
       <r>    10.6532     0.8442    45.9564 </r>
       <r>    10.7202     0.9789    46.0219 </r>
       <r>    10.7871     1.1624    46.0998 </r>
       <r>    10.8541     1.2234    46.1817 </r>
       <r>    10.9211     1.0954    46.2550 </r>
       <r>    10.9880     0.8484    46.3118 </r>
       <r>    11.0550     0.6634    46.3563 </r>
       <r>    11.1219     0.6868    46.4022 </r>
       <r>    11.1889     0.8819    46.4613 </r>
       <r>    11.2558     1.0782    46.5335 </r>
       <r>    11.3228     1.1399    46.6098 </r>
       <r>    11.3897     1.0689    46.6814 </r>
       <r>    11.4567     0.9905    46.7477 </r>
       <r>    11.5237     1.0105    46.8154 </r>
       <r>    11.5906     1.0599    46.8863 </r>
       <r>    11.6576     0.9699    46.9513 </r>
       <r>    11.7245     0.7219    46.9996 </r>
       <r>    11.7915     0.4964    47.0328 </r>
       <r>    11.8584     0.4748    47.0646 </r>
       <r>    11.9254     0.6934    47.1111 </r>
       <r>    11.9923     1.0211    47.1794 </r>
       <r>    12.0593     1.2098    47.2604 </r>
       <r>    12.1263     1.0994    47.3340 </r>
       <r>    12.1932     0.8210    47.3890 </r>
       <r>    12.2602     0.6646    47.4335 </r>
       <r>    12.3271     0.7308    47.4824 </r>
       <r>    12.3941     0.8427    47.5389 </r>
       <r>    12.4610     0.8173    47.5936 </r>
       <r>    12.5280     0.6915    47.6399 </r>
       <r>    12.5950     0.6076    47.6806 </r>
       <r>    12.6619     0.5891    47.7200 </r>
       <r>    12.7289     0.5642    47.7578 </r>
       <r>    12.7958     0.5271    47.7931 </r>
       <r>    12.8628     0.5113    47.8273 </r>
       <r>    12.9297     0.4798    47.8594 </r>
       <r>    12.9967     0.3920    47.8857 </r>
       <r>    13.0636     0.2900    47.9051 </r>
       <r>    13.1306     0.2242    47.9201 </r>
       <r>    13.1976     0.1846    47.9325 </r>
       <r>    13.2645     0.1483    47.9424 </r>
       <r>    13.3315     0.1195    47.9504 </r>
       <r>    13.3984     0.1138    47.9580 </r>
       <r>    13.4654     0.1323    47.9669 </r>
       <r>    13.5323     0.1556    47.9773 </r>
       <r>    13.5993     0.1571    47.9878 </r>
       <r>    13.6662     0.1225    47.9960 </r>
       <r>    13.7332     0.0637    48.0003 </r>
       <r>    13.8002     0.0128    48.0012 </r>
       <r>    13.8671    -0.0090    48.0006 </r>
       <r>    13.9341    -0.0081    48.0000 </r>
       <r>    14.0010    -0.0021    47.9999 </r>
       <r>    14.0680     0.0007    47.9999 </r>
       <r>    14.1349     0.0008    48.0000 </r>
       <r>    14.2019     0.0004    48.0000 </r>
       <r>    14.2688     0.0001    48.0000 </r>
       <r>    14.3358     0.0000    48.0000 </r>
       <r>    14.4028     0.0000    48.0000 </r>
       <r>    14.4697     0.0000    48.0000 </r>
       <r>    14.5367     0.0000    48.0000 </r>
       <r>    14.6036     0.0000    48.0000 </r>
       <r>    14.6706     0.0000    48.0000 </r>
       <r>    14.7375     0.0000    48.0000 </r>
       <r>    14.8045     0.0000    48.0000 </r>
       <r>    14.8715     0.0000    48.0000 </r>
       <r>    14.9384     0.0000    48.0000 </r>
       <r>    15.0054     0.0000    48.0000 </r>
       <r>    15.0723     0.0000    48.0000 </r>
       <r>    15.1393     0.0000    48.0000 </r>
       <r>    15.2062     0.0000    48.0000 </r>
       <r>    15.2732     0.0000    48.0000 </r>
       <r>    15.3401     0.0000    48.0000 </r>
       <r>    15.4071     0.0000    48.0000 </r>
       <r>    15.4741     0.0000    48.0000 </r>
       <r>    15.5410     0.0000    48.0000 </r>
       <r>    15.6080     0.0000    48.0000 </r>
      </set>
     </set>
    </array>
   </total>
  </dos>
 </calculation>
 <structure name="finalpos" >
  <crystal>
   <varray name="basis" >
    <v>       4.00000000       0.00000000       0.00000000 </v>
    <v>       0.00000000       4.00000000       0.00000000 </v>
    <v>       0.00000000       0.00000000       4.00000000 </v>
   </varray>
   <i name="volume">     64.00000000 </i>
   <varray name="rec_basis" >
    <v>       0.25000000       0.00000000       0.00000000 </v>
    <v>       0.00000000       0.25000000       0.00000000 </v>
    <v>       0.00000000       0.00000000       0.25000000 </v>
   </varray>
  </crystal>
  <varray name="positions" >
   <v>       0.00000000       0.00000000       0.00000000 </v>
   <v>       0.00000000       0.50000000       0.50000000 </v>
   <v>       0.50000000       0.00000000       0.50000000 </v>
   <v>       0.50000000       0.50000000       0.00000000 </v>
  </varray>
 </structure>
</modeling>
